/*--------------------------------*- C++ -*----------------------------------*\
  =========                 |
  \\      /  F ield         | OpenFOAM: The Open Source CFD Toolbox
   \\    /   O peration     | Website:  https://openfoam.org
    \\  /    A nd           | Version:  13
     \\/     M anipulation  |
\*---------------------------------------------------------------------------*/
FoamFile
{
    format      ascii;
    class       surfaceScalarField;
    location    "1";
    object      Dm1;
}
// * * * * * * * * * * * * * * * * * * * * * * * * * * * * * * * * * * * * * //

dimensions      [0 3 -1 0 0 0 0];

internalField   nonuniform List<scalar> 
199
(
1.17257728642e-15
3.28219978844e-15
8.90974469885e-15
2.38368410847e-14
6.34418551704e-14
1.66695551055e-13
4.31835694402e-13
1.10145872156e-12
2.76661079841e-12
6.84271228446e-12
1.66652397715e-11
3.99614712928e-11
9.4334949456e-11
2.19207012774e-10
5.01347471687e-10
1.12843307585e-09
2.49927711326e-09
5.44630170127e-09
1.16757141531e-08
2.46208926817e-08
5.1062865031e-08
1.04142586766e-07
2.08839355133e-07
4.11712733576e-07
7.9782844657e-07
1.51946726243e-06
2.8436173525e-06
5.22851423175e-06
9.44365489306e-06
1.67525911674e-05
2.91828382323e-05
4.99112876303e-05
8.37947313758e-05
0.000138070849178
0.000223242074027
0.000354129956132
0.000551048989556
0.000840997175637
0.00125870139307
0.00184730052247
0.00265841571868
0.00375136570541
0.00519135276809
0.00704657786487
0.00938442713267
0.012267071134
0.0157469809125
0.0198629398335
0.024637085813
0.0300733583334
0.036157488463
0.0428584203068
0.0501308507391
0.0579184611932
0.0661573996312
0.0747796339362
0.0837159062774
0.0928981371073
0.102261231858
0.111744319924
0.121291501725
0.130852199914
0.140381212512
0.149838556138
0.159189172691
0.168402556688
0.177452345532
0.186315902345
0.194973910947
0.203409994988
0.211610367795
0.219563515683
0.227259914995
0.234691781538
0.241852850235
0.248738182283
0.255343997045
0.261667525862
0.267706885195
0.273460966664
0.278929341812
0.284112179686
0.28901017551
0.293624488997
0.297956690997
0.302008717404
0.305782829362
0.309281578957
0.312507779734
0.315464481441
0.318154948517
0.320582641933
0.322751204037
0.32466444615
0.326326338692
0.327741003694
0.328912709565
0.329845868069
0.33054503349
0.331014903981
0.331260325198
0.331286296279
0.331097978347
0.330700705699
0.330099999915
0.329301587152
0.328311418928
0.327135696731
0.325780900812
0.324253823544
0.322561607701
0.320711789981
0.31871235002
0.316571764965
0.314299069478
0.311903920651
0.30939666684
0.306788418721
0.304091119938
0.301317613534
0.298481698868
0.295598171947
0.292682840115
0.289752499967
0.286824865424
0.283918431557
0.281052259464
0.278245668946
0.27551782952
0.272887246908
0.270371151303
0.267984804241
0.265740749535
0.263648034418
0.261711408722
0.259930453503
0.25829846056
0.256800612766
0.255410488631
0.254082962008
0.25273966672
0.251237980832
0.249310742594
0.24644913257
0.24169071349
0.233282112709
0.218289749113
0.192594784344
0.152425363825
0.0989269074555
0.0444109070934
0.00978715945349
0.000679433391245
1.92003182837e-05
4.70629246262e-07
1.15022819064e-08
2.81184515193e-10
6.87578191948e-12
1.68173344126e-13
4.11368283484e-15
1.009885881e-16
2.34889131878e-18
2.2888990043e-20
0
0
0
0
0
0
0
0
0
0
0
0
0
0
0
0
0
0
0
0
0
0
0
0
0
0
0
0
0
0
0
0
0
0
0
0
)
;

boundaryField
{
    inflow
    {
        type            calculated;
        value           uniform -4.15256251478e-16;
    }
    outflow
    {
        type            calculated;
        value           uniform 0;
    }
    sides
    {
        type            empty;
    }
    topAndBottom
    {
        type            empty;
    }
}


// ************************************************************************* //
