/*--------------------------------*- C++ -*----------------------------------*\
  =========                 |
  \\      /  F ield         | OpenFOAM: The Open Source CFD Toolbox
   \\    /   O peration     | Website:  https://openfoam.org
    \\  /    A nd           | Version:  13
     \\/     M anipulation  |
\*---------------------------------------------------------------------------*/
FoamFile
{
    format      ascii;
    class       surfaceScalarField;
    location    "1";
    object      Dm2;
}
// * * * * * * * * * * * * * * * * * * * * * * * * * * * * * * * * * * * * * //

dimensions      [0 3 -1 0 0 0 0];

internalField   nonuniform List<scalar> 
199
(
1.22625
1.22625
1.22625
1.22625
1.22625
1.22625
1.22625
1.22625
1.22624999999
1.22624999998
1.22624999996
1.22624999991
1.22624999979
1.22624999951
1.22624999889
1.2262499975
1.22624999446
1.22624998794
1.22624997414
1.22624994547
1.22624988691
1.22624976935
1.22624953748
1.22624908817
1.22624823303
1.2262466348
1.22624370219
1.22623842032
1.22622908504
1.22621289803
1.22618536927
1.22613946376
1.22606442762
1.22594423782
1.22575565007
1.22546587526
1.22503000366
1.22438841476
1.22346454803
1.22216353859
1.22037230256
1.21796163852
1.2147907528
1.21071429802
1.2055915687
1.19929700839
1.19173077919
1.18282795851
1.17256504378
1.16096285906
1.14808556722
1.13403613423
1.11894910569
1.10298183208
1.08630529818
1.06909552399
1.05152620374
1.03376292655
1.01595904762
0.9982530824
0.980767385002
0.96360782942
0.946864218717
0.930611181261
0.914909359069
0.899806740313
0.885340030165
0.871535988855
0.858412692631
0.845980693055
0.834244063822
0.823201333561
0.812846308835
0.803168794927
0.794155223657
0.785789198072
0.778051963698
0.770922815496
0.764379448938
0.758398262717
0.752954619792
0.748023072609
0.743577557597
0.739591563341
0.73603827623
0.732890706851
0.730121799928
0.727704530215
0.725611986429
0.723817444994
0.722294435154
0.721016796799
0.719958732176
0.719094852537
0.718400220643
0.717850389978
0.71742144145
0.717090018301
0.716833359938
0.716629335365
0.716456476915
0.716294014979
0.71612191448
0.715920913864
0.715672567462
0.715359292117
0.714964419066
0.714472252133
0.713868133385
0.713138517433
0.712271055651
0.711254691521
0.710079768284
0.70873814986
0.707223355652
0.705530709292
0.703657500504
0.701603157999
0.699369429569
0.696960563195
0.694383479994
0.691647926107
0.688766586386
0.685755138025
0.682632217789
0.679419272773
0.676140262914
0.672821184859
0.669489392598
0.666172701039
0.662898273507
0.659691309306
0.656573554166
0.653561637541
0.650665164626
0.647884299056
0.645206152906
0.64259843376
0.639997071057
0.637281458596
0.634224687057
0.630390679202
0.624934405188
0.616221807342
0.601162018337
0.574216563553
0.526523038943
0.446989626356
0.329368573925
0.187700188574
0.0666324461889
0.00959036511788
0.00076167345004
0.000496544495269
0.000490647421914
0.00049050360263
0.00049050008807
0.000490500002154
0.000490500000053
0.000490500000001
0.0004905
0.0004905
0.0004905
0.0004905
0.0004905
0.0004905
0.0004905
0.0004905
0.0004905
0.0004905
0.0004905
0.0004905
0.0004905
0.0004905
0.0004905
0.0004905
0.0004905
0.0004905
0.0004905
0.0004905
0.0004905
0.0004905
0.0004905
0.0004905
0.0004905
0.0004905
0.0004905
0.0004905
0.0004905
0.0004905
0.0004905
0.0004905
0.0004905
0.0004905
0.0004905
0.0004905
0.0004905
0.0004905
0.0004905
)
;

boundaryField
{
    inflow
    {
        type            calculated;
        value           uniform -1.22625;
    }
    outflow
    {
        type            calculated;
        value           uniform 0.0004905;
    }
    sides
    {
        type            empty;
    }
    topAndBottom
    {
        type            empty;
    }
}


// ************************************************************************* //
