/*--------------------------------*- C++ -*----------------------------------*\
  =========                 |
  \\      /  F ield         | OpenFOAM: The Open Source CFD Toolbox
   \\    /   O peration     | Website:  https://openfoam.org
    \\  /    A nd           | Version:  13
     \\/     M anipulation  |
\*---------------------------------------------------------------------------*/
FoamFile
{
    format      ascii;
    class       volScalarField;
    location    "1";
    object      Q1;
}
// * * * * * * * * * * * * * * * * * * * * * * * * * * * * * * * * * * * * * //

dimensions      [];

internalField   nonuniform List<scalar> 
200
(
0.5
0.5
0.5
0.5
0.5
0.5
0.5
0.5
0.499999999999
0.499999999999
0.499999999996
0.499999999991
0.499999999979
0.49999999995
0.499999999884
0.499999999736
0.499999999408
0.499999998694
0.499999997165
0.499999993947
0.499999987288
0.499999973743
0.499999946663
0.499999893469
0.499999790815
0.499999596239
0.499999234063
0.499998572202
0.499997384977
0.499995295138
0.499991686069
0.499985572927
0.499975419812
0.49995888979
0.499932517003
0.499891296467
0.499828198987
0.499733636335
0.4995949249
0.499395821383
0.4991162263
0.498732162243
0.498216125633
0.497537876789
0.496665673253
0.495567873471
0.494214758865
0.492580363365
0.490644079555
0.488391838628
0.485816731802
0.482919035227
0.479705693901
0.476189390841
0.472387363477
0.468320129479
0.464010257699
0.459481279377
0.454756792177
0.449859773306
0.444812091796
0.439634194398
0.434344932644
0.428961498
0.423499435048
0.41797270752
0.412393797279
0.406773821261
0.401122655678
0.395449060103
0.389760796728
0.384064741949
0.378366988814
0.372672939793
0.366987389931
0.361314600827
0.355658366096
0.350022069071
0.344408733528
0.338821068228
0.333261505981
0.327732237938
0.322235243705
0.316772317839
0.311345093213
0.305955061687
0.300603592465
0.29529194848
0.290021301094
0.284792743394
0.279607302301
0.274465949708
0.269369612841
0.264319184005
0.259315529875
0.254359500491
0.249451938075
0.244593685835
0.239785596856
0.235028543241
0.23032342561
0.225671183103
0.221072804031
0.216529337306
0.212041904803
0.207611714803
0.203240076664
0.198928416867
0.194678296574
0.190491430802
0.186369709307
0.182315219183
0.178330269141
0.174417415268
0.170579487942
0.166819619325
0.163141270572
0.159548257496
0.156044772932
0.152635403448
0.149325137334
0.146119359979
0.143023831923
0.14004464407
0.137188143942
0.134460826677
0.131869184935
0.129419513367
0.127117665995
0.124968769083
0.122976897538
0.121144729201
0.11947319707
0.117961162323
0.116605127175
0.115398990076
0.114333806531
0.113397439123
0.112573825399
0.111841290171
0.111168982935
0.110508687012
0.109778411969
0.108829887194
0.107387210376
0.104941356846
0.100600721366
0.0929767556405
0.0803913705267
0.0619659211739
0.0398855680544
0.0209072372237
0.0117829799723
0.0100978257764
0.0100026307003
0.0100000644136
0.0100000015745
0.0100000000385
0.0100000000009
0.01
0.01
0.01
0.01
0.01
0.01
0.01
0.01
0.01
0.01
0.01
0.01
0.01
0.01
0.01
0.01
0.01
0.01
0.01
0.01
0.01
0.01
0.01
0.01
0.01
0.01
0.01
0.01
0.01
0.01
0.01
0.01
0.01
0.01
0.01
0.01
0.01
0.01
0.01
0.01
0.01
)
;

boundaryField
{
    inflow
    {
        type            zeroGradient;
    }
    outflow
    {
        type            zeroGradient;
    }
    sides
    {
        type            empty;
    }
    topAndBottom
    {
        type            empty;
    }
}


// ************************************************************************* //
