/*--------------------------------*- C++ -*----------------------------------*\
  =========                 |
  \\      /  F ield         | OpenFOAM: The Open Source CFD Toolbox
   \\    /   O peration     | Website:  https://openfoam.org
    \\  /    A nd           | Version:  13
     \\/     M anipulation  |
\*---------------------------------------------------------------------------*/
FoamFile
{
    format      ascii;
    class       volScalarField;
    location    "1";
    object      Q2;
}
// * * * * * * * * * * * * * * * * * * * * * * * * * * * * * * * * * * * * * //

dimensions      [];

internalField   nonuniform List<scalar> 
200
(
5.08998693642e-16
1.46008277719e-15
4.0454722327e-15
1.08773982721e-14
2.90958970464e-14
7.71876625333e-14
2.02147068662e-13
5.21313235163e-13
1.32390382876e-12
3.31106011097e-12
8.15471617504e-12
1.97769608235e-11
4.72242872443e-11
1.11014421998e-10
2.56893282704e-10
5.85108908542e-10
1.31154040473e-09
2.89291889359e-09
6.27838067653e-09
1.34048357117e-08
2.81528163463e-08
5.81528615632e-08
1.1812720269e-07
2.35937657706e-07
4.63287115395e-07
8.94219236465e-07
1.69633603803e-06
3.16216941237e-06
5.79152561385e-06
1.04198780229e-05
1.8412777536e-05
3.19511388376e-05
5.44359095041e-05
9.10410600574e-05
0.000149438309437
0.000240702279342
0.000380377790622
0.000589650124461
0.000896505758118
0.00133671184773
0.0019543903154
0.00280193524827
0.00393904107239
0.00543068961042
0.0073440891206
0.00974474924371
0.0126920718656
0.0162349853125
0.0204081986164
0.0252295792156
0.0306989742857
0.0367985508045
0.0434944876103
0.0507396723717
0.0584769698845
0.0666426358677
0.075169528165
0.0839898799498
0.0930375148127
0.102249479614
0.111567138012
0.120936805554
0.130310021659
0.139643552056
0.148899204232
0.158043523429
0.167047421264
0.175885775026
0.184537024062
0.192982780517
0.201207464852
0.209197971676
0.216943368036
0.22443462411
0.231664374864
0.238626710469
0.245316992871
0.251731695828
0.257868265767
0.263725000971
0.269300946815
0.27459580501
0.279609855018
0.284343886056
0.288799138288
0.292977252002
0.296880223733
0.300510368447
0.303870287038
0.306962838474
0.309791116081
0.312358427491
0.314668277904
0.316724356343
0.318530524675
0.320090809218
0.321409394788
0.322490621129
0.323338981659
0.323959124576
0.324355856334
0.324534147618
0.324499141922
0.324256166924
0.323810748858
0.323168630138
0.322335790521
0.321318472108
0.320123208521
0.318756858581
0.317226644768
0.315540196732
0.313705599953
0.311731449521
0.309626908689
0.307401771491
0.305066528138
0.302632431194
0.300111559515
0.297516875761
0.294862271759
0.292162594277
0.289433641899
0.286692121801
0.283955553693
0.281242107338
0.278570360479
0.275958966372
0.273426224836
0.270989558348
0.268664904554
0.266466047387
0.264403917354
0.262485891458
0.260715104705
0.259089730663
0.257602067376
0.256237018264
0.254969069288
0.253755916087
0.252525533117
0.251148531336
0.249383157132
0.246768428472
0.242427294813
0.234742801553
0.220952096222
0.197033975906
0.159002573046
0.10720372161
0.0524986649645
0.0144564790078
0.00139111886697
3.60579301397e-05
8.26658973987e-07
2.01764042434e-08
4.93152027914e-10
1.20574810837e-11
2.94879891514e-13
7.21332328255e-15
1.76424823075e-16
4.33574217062e-18
9.15506569236e-20
0
0
0
0
0
0
0
0
0
0
0
0
0
0
0
0
0
0
0
0
0
0
0
0
0
0
0
0
0
0
0
0
0
0
0
0
0
)
;

boundaryField
{
    inflow
    {
        type            zeroGradient;
    }
    outflow
    {
        type            zeroGradient;
    }
    sides
    {
        type            empty;
    }
    topAndBottom
    {
        type            empty;
    }
}


// ************************************************************************* //
