/*--------------------------------*- C++ -*----------------------------------*\
  =========                 |
  \\      /  F ield         | OpenFOAM: The Open Source CFD Toolbox
   \\    /   O peration     | Website:  https://openfoam.org
    \\  /    A nd           | Version:  13
     \\/     M anipulation  |
\*---------------------------------------------------------------------------*/
FoamFile
{
    format      ascii;
    class       surfaceScalarField;
    location    "1";
    object      Dm1;
}
// * * * * * * * * * * * * * * * * * * * * * * * * * * * * * * * * * * * * * //

dimensions      [0 3 -1 0 0 0 0];

internalField   nonuniform List<scalar> 
99
(
0
0
0
0
0
0
0
0
0
0
0
0
0
0
0
0
0
0
0
0
0
0
0
0
0
0
0.0133049744183
0.0362962351216
0.0616789684481
0.0870651866699
0.111601714921
0.134951677289
0.156970938013
0.17759628461
0.196802910768
0.214586664988
0.230956446623
0.245929971982
0.259531058791
0.271787749205
0.282731029608
0.292394070098
0.300811886747
0.308021171919
0.314060018751
0.318967533395
0.322783575151
0.325548780072
0.327304747441
0.328094157777
0.327960753899
0.326949347381
0.325106085994
0.322479112517
0.319119604048
0.315083135696
0.310431376958
0.305234275129
0.29957316355
0.293545538679
0.287272283433
0.280909063163
0.274663556817
0.268807801869
0.263646207935
0.259449113003
0.257141576064
0.255971226546
0.25574780857
0.255663018147
0.255793035591
0.256561323172
0.257550156927
0.255478902573
0.233130844009
0.086115810401
0.00123017609098
1.08420217249e-21
0
0
0
0
0
0
0
0
0
0
0
0
0
0
0
0
0
0
0
0
0
)
;

boundaryField
{
    inflow
    {
        type            calculated;
        value           uniform -0;
    }
    outflow
    {
        type            calculated;
        value           uniform 0;
    }
    sides
    {
        type            empty;
    }
    topAndBottom
    {
        type            empty;
    }
}


// ************************************************************************* //
