/*--------------------------------*- C++ -*----------------------------------*\
  =========                 |
  \\      /  F ield         | OpenFOAM: The Open Source CFD Toolbox
   \\    /   O peration     | Website:  https://openfoam.org
    \\  /    A nd           | Version:  13
     \\/     M anipulation  |
\*---------------------------------------------------------------------------*/
FoamFile
{
    format      ascii;
    class       surfaceScalarField;
    location    "1";
    object      Dp2;
}
// * * * * * * * * * * * * * * * * * * * * * * * * * * * * * * * * * * * * * //

dimensions      [0 3 -1 0 0 0 0];

internalField   nonuniform List<scalar> 
99
(
-1.22625
-1.22625
-1.22625
-1.22625
-1.22625
-1.22625
-1.22625
-1.22625
-1.22625
-1.22625
-1.22625
-1.22625
-1.22625
-1.22625
-1.22625
-1.22625
-1.22625
-1.22625
-1.22625
-1.22625
-1.22625
-1.22625
-1.22625
-1.22625
-1.22625
-1.22625
-1.19700123866
-1.14783036096
-1.09551218041
-1.04537753934
-0.999138821064
-0.957280829762
-0.919851434998
-0.886723698573
-0.857685738296
-0.832482189352
-0.810835868517
-0.792460020011
-0.777065213129
-0.764363280548
-0.754069774846
-0.745905916285
-0.739600497922
-0.734891504647
-0.731526941268
-0.729264961245
-0.727874031747
-0.727133655731
-0.726835388277
-0.726783508158
-0.726795103156
-0.726699969306
-0.726340953626
-0.72557508162
-0.724275401895
-0.722333359701
-0.719661730885
-0.716198545639
-0.711912970206
-0.706814286585
-0.700964668053
-0.694500629344
-0.687669036775
-0.680851020543
-0.674498738083
-0.668972826562
-0.666578100526
-0.664433908046
-0.66386524568
-0.663384630041
-0.663316190257
-0.664731149914
-0.66589810473
-0.653406578625
-0.560802221589
-0.142404267563
-0.00146600635582
-0.0004905
-0.0004905
-0.0004905
-0.0004905
-0.0004905
-0.0004905
-0.0004905
-0.0004905
-0.0004905
-0.0004905
-0.0004905
-0.0004905
-0.0004905
-0.0004905
-0.0004905
-0.0004905
-0.0004905
-0.0004905
-0.0004905
-0.0004905
-0.0004905
-0.0004905
)
;

boundaryField
{
    inflow
    {
        type            calculated;
        value           uniform 1.22625;
    }
    outflow
    {
        type            calculated;
        value           uniform -0.0004905;
    }
    sides
    {
        type            empty;
    }
    topAndBottom
    {
        type            empty;
    }
}


// ************************************************************************* //
