/*--------------------------------*- C++ -*----------------------------------*\
  =========                 |
  \\      /  F ield         | OpenFOAM: The Open Source CFD Toolbox
   \\    /   O peration     | Website:  https://openfoam.org
    \\  /    A nd           | Version:  13
     \\/     M anipulation  |
\*---------------------------------------------------------------------------*/
FoamFile
{
    format      ascii;
    class       volScalarField;
    location    "1";
    object      Q1;
}
// * * * * * * * * * * * * * * * * * * * * * * * * * * * * * * * * * * * * * //

dimensions      [];

internalField   nonuniform List<scalar> 
100
(
0.5
0.5
0.5
0.5
0.5
0.5
0.5
0.5
0.5
0.5
0.5
0.5
0.5
0.5
0.5
0.5
0.5
0.5
0.5
0.5
0.5
0.5
0.5
0.5
0.5
0.5
0.497632095589
0.488765040969
0.477098450976
0.464458122225
0.451497679504
0.438465599063
0.425470651453
0.412569077644
0.39979427774
0.387167697214
0.374704157105
0.362414459156
0.350306831554
0.338387736715
0.326662339647
0.315134829826
0.30380870258
0.292687003868
0.281772481399
0.271067635867
0.26057475383
0.250296004538
0.240233599143
0.230389951266
0.22076780708
0.211370387751
0.202201627774
0.193266569039
0.1845719134
0.176126694769
0.167943034396
0.160037009954
0.152429858342
0.145150028048
0.138236926545
0.131747287043
0.125765435115
0.120404724807
0.115804516082
0.112064252538
0.109467427743
0.108273968444
0.107776763871
0.107780903367
0.107861248404
0.108177576047
0.108814923045
0.109144605669
0.105845390929
0.0763861303468
0.0211660330224
0.0100577775594
0.01
0.01
0.01
0.01
0.01
0.01
0.01
0.01
0.01
0.01
0.01
0.01
0.01
0.01
0.01
0.01
0.01
0.01
0.01
0.01
0.01
0.01
)
;

boundaryField
{
    inflow
    {
        type            zeroGradient;
    }
    outflow
    {
        type            zeroGradient;
    }
    sides
    {
        type            empty;
    }
    topAndBottom
    {
        type            empty;
    }
}


// ************************************************************************* //
