/*--------------------------------*- C++ -*----------------------------------*\
  =========                 |
  \\      /  F ield         | OpenFOAM: The Open Source CFD Toolbox
   \\    /   O peration     | Website:  https://openfoam.org
    \\  /    A nd           | Version:  13
     \\/     M anipulation  |
\*---------------------------------------------------------------------------*/
FoamFile
{
    format      ascii;
    class       volScalarField;
    location    "1";
    object      Q2;
}
// * * * * * * * * * * * * * * * * * * * * * * * * * * * * * * * * * * * * * //

dimensions      [];

internalField   nonuniform List<scalar> 
100
(
0
0
0
0
0
0
0
0
0
0
0
0
0
0
0
0
0
0
0
0
0
0
0
0
0
0
0.00521914985213
0.0244429225328
0.0489556111109
0.0744639018651
0.0994743065989
0.123438257618
0.146132542982
0.167460143251
0.187379116535
0.205875869821
0.222953231545
0.23862478587
0.252911473999
0.265839327856
0.277437913807
0.28773933332
0.29677770379
0.304588922012
0.311210423004
0.316680819365
0.321039578387
0.324326932017
0.326583999651
0.327852927171
0.328176908776
0.327600166309
0.326168094374
0.323927741812
0.320928670461
0.317224144834
0.312872618342
0.307939575207
0.302500036473
0.296642377123
0.290474509715
0.284133761232
0.277806668804
0.271732089101
0.266221671695
0.261452370459
0.258155001758
0.256910885873
0.255753025689
0.255702773373
0.255725831138
0.2561672029
0.257201781791
0.256209322675
0.240546146836
0.143625262002
0.0159461714211
3.88412477205e-05
0
0
0
0
0
0
0
0
0
0
0
0
0
0
0
0
0
0
0
0
0
0
)
;

boundaryField
{
    inflow
    {
        type            zeroGradient;
    }
    outflow
    {
        type            zeroGradient;
    }
    sides
    {
        type            empty;
    }
    topAndBottom
    {
        type            empty;
    }
}


// ************************************************************************* //
