/*--------------------------------*- C++ -*----------------------------------*\
  =========                 |
  \\      /  F ield         | OpenFOAM: The Open Source CFD Toolbox
   \\    /   O peration     | Website:  https://openfoam.org
    \\  /    A nd           | Version:  13
     \\/     M anipulation  |
\*---------------------------------------------------------------------------*/
FoamFile
{
    format      ascii;
    class       surfaceScalarField;
    location    "1";
    object      Dm2;
}
// * * * * * * * * * * * * * * * * * * * * * * * * * * * * * * * * * * * * * //

dimensions      [0 3 -1 0 0 0 0];

internalField   nonuniform List<scalar> 
799
(
1.22625
1.22625
1.22625
1.22625
1.22625
1.22625
1.22625
1.22625
1.22625
1.22625
1.22625
1.22625
1.22625
1.22625
1.22625
1.22625
1.22625
1.22625
1.22625
1.22625
1.22625
1.22625
1.22625
1.22625
1.22625
1.22625
1.22625
1.22625
1.22625
1.22625
1.22625
1.22625
1.22625
1.22625
1.22625
1.22625
1.22625
1.22625
1.22625
1.22625
1.22625
1.22625
1.22625
1.22625
1.22625
1.22625
1.22625
1.22625
1.22625
1.22625
1.22625
1.22625
1.22625
1.22625
1.22625
1.22625
1.22625
1.22625
1.22625
1.22625
1.22625
1.22625
1.22625
1.22625
1.22625
1.22625
1.22625
1.22625
1.22625
1.22625
1.22625
1.22625
1.22625
1.22625
1.22625
1.22625
1.22625
1.22625
1.22625
1.22625
1.22625
1.22625
1.22625
1.22625
1.22625
1.22625
1.22625
1.22625
1.22625
1.22625
1.22625
1.22625
1.22625
1.22625
1.22625
1.22625
1.22625
1.22625
1.22625
1.22625
1.22625
1.22625
1.22625
1.22625
1.22625
1.22625
1.22625
1.22625
1.22625
1.22625
1.22625
1.22625
1.22625
1.22625
1.22625
1.22625
1.22625
1.22625
1.22625
1.22625
1.22625
1.22625
1.22625
1.22625
1.22625
1.22625
1.22625
1.22625
1.22625
1.22625
1.22625
1.22625
1.22625
1.22625
1.22625
1.22625
1.22625
1.22625
1.22625
1.22625
1.22625
1.22625
1.22625
1.22625
1.22625
1.22625
1.22625
1.22625
1.22625
1.22625
1.22625
1.22625
1.22625
1.22625
1.22625
1.22625
1.22625
1.22625
1.22625
1.22625
1.22625
1.22625
1.22625
1.22625
1.22625
1.22625
1.22625
1.22625
1.22625
1.22625
1.22625
1.22625
1.22625
1.22625
1.22625
1.22625
1.22625
1.22625
1.22625
1.22625
1.22625
1.22625
1.22625
1.22625
1.22625
1.22625
1.22625
1.22625
1.22625
1.22625
1.22625
1.22625
1.22625
1.22625
1.22625
1.22625
1.22625
1.22625
1.22625
1.22625
1.22625
1.22625
1.22625
1.22625
1.22625
1.22625
1.22625
1.22625
1.22625
1.22625
1.22625
1.22625
1.22625
1.22625
1.22625
1.22625
1.22625
1.22625
1.22625
1.22625
1.22500625469
1.21928334769
1.2118013155
1.20372360373
1.19546461089
1.18717707607
1.17892000299
1.17071958698
1.16258935565
1.15453743791
1.14656925655
1.13868860279
1.13089821295
1.12320006994
1.11559560128
1.10808580936
1.10067136544
1.09335268196
1.08612996887
1.07900327652
1.0719725259
1.06503752978
1.05819800926
1.05145360922
1.04480391296
1.0382484543
1.03178672587
1.02541818373
1.01914225081
1.01295832104
1.00686576459
1.0008639331
0.994952163111
0.989129777408
0.983396085382
0.977750383914
0.972191959523
0.966720091111
0.96133405204
0.956033110815
0.950816530781
0.945683569936
0.94063348168
0.935665516344
0.930778922677
0.925972948475
0.921246840324
0.916599843112
0.912031200071
0.907540153557
0.903125946113
0.898787821136
0.894525022842
0.890336795819
0.886222384747
0.882181034662
0.878211991642
0.87431450344
0.870487819685
0.866731191649
0.86304387192
0.859425114342
0.855874174271
0.852390308956
0.848972777744
0.845620842081
0.842333765459
0.839110813529
0.835951254373
0.832854358707
0.829819399818
0.826845653231
0.82393239639
0.821078908649
0.818284471673
0.81554836998
0.812869891268
0.810248326293
0.807682968444
0.805173113357
0.802718058892
0.800317105476
0.797969556532
0.795674718699
0.793431901679
0.79124041791
0.789099582323
0.787008712398
0.784967128458
0.782974153968
0.781029115614
0.779131343142
0.777280169095
0.77547492869
0.773714959913
0.771999603766
0.77032820446
0.76870010943
0.767114669174
0.765571237064
0.764069169286
0.76260782495
0.761186566277
0.759804758732
0.758461770997
0.75715697484
0.755889744974
0.754659459037
0.753465497689
0.752307244762
0.751184087343
0.75009541574
0.749040623371
0.748019106665
0.747030265058
0.746073501076
0.745148220449
0.744253832169
0.743389748457
0.742555384671
0.741750159237
0.740973493648
0.74022481253
0.739503543737
0.738809118387
0.738140970837
0.737498538611
0.736881262347
0.736288585791
0.735719955861
0.735174822707
0.734652639753
0.73415286367
0.733674954328
0.733218374742
0.732782591077
0.732367072684
0.731971292161
0.731594725377
0.731236851466
0.730897152783
0.730575114867
0.730270226439
0.729981979436
0.729709869047
0.72945339374
0.729212055244
0.728985358506
0.72877281166
0.72857392602
0.728388216121
0.728215199771
0.7280543981
0.727905335556
0.727767539867
0.727640541976
0.727523875999
0.727417079217
0.727319692127
0.727231258507
0.727151325487
0.727079443571
0.727015166629
0.726958051836
0.726907659613
0.72686355357
0.726825300487
0.726792470331
0.726764636294
0.726741374853
0.726722265809
0.726706892316
0.72669484088
0.726685701336
0.726679066814
0.726674533718
0.726671701709
0.72667017371
0.726669555932
0.72666945789
0.726669492419
0.726669275688
0.726668427186
0.726666569729
0.726663329452
0.726658335822
0.726651221645
0.726641623075
0.726629179603
0.726613534041
0.72659433249
0.726571224324
0.726543862188
0.726511902026
0.726475003133
0.72643282823
0.726385043528
0.726331318769
0.726271327232
0.726204745704
0.726131254412
0.726050536952
0.725962280227
0.725866174424
0.725761913028
0.725649192881
0.725527714269
0.725397181002
0.725257300485
0.725107783743
0.724948345418
0.724778703738
0.724598580482
0.72440770096
0.724205794015
0.723992592051
0.723767831082
0.723531250775
0.723282594487
0.723021609297
0.722748046014
0.722461659198
0.722162207181
0.721849452096
0.721523159917
0.721183100506
0.720829047653
0.720460779118
0.720078076674
0.719680726148
0.719268517481
0.718841244791
0.718398706454
0.717940705188
0.71746704814
0.716977546977
0.716472017987
0.715950282176
0.715412165388
0.714857498423
0.714286117174
0.713697862763
0.713092581705
0.712470126075
0.711830353706
0.711173128434
0.710498320365
0.709805806191
0.709095469529
0.708367201265
0.707620899903
0.706856471891
0.706073831944
0.705272903366
0.704453618388
0.703615918564
0.702759755209
0.701885089928
0.700991895195
0.700080154991
0.699149865486
0.698201035722
0.697233688315
0.696247860154
0.695243603101
0.694220984728
0.693180089084
0.692121017538
0.691043889679
0.689948844286
0.688836040282
0.687705657544
0.686557897293
0.685392981579
0.684211151097
0.683012660284
0.681797768627
0.680566727998
0.67931976896
0.678057097036
0.676778927794
0.675485625982
0.674178080309
0.67285854877
0.671532388214
0.670211270516
0.668918136663
0.667695424106
0.666618932989
0.665784416216
0.66534501216
0.66534501216
0.665410907506
0.665728788236
0.66639588454
0.667361670977
0.668491763913
0.669606642853
0.670523260964
0.671029294232
0.671082477015
0.671071557919
0.670986749633
0.670814284549
0.670564685641
0.670265836156
0.669948719333
0.669645176694
0.669390023099
0.669221628165
0.66915978242
0.66915978242
0.669170495912
0.669212966458
0.669289861819
0.669397398749
0.669529478965
0.669677127296
0.669828844977
0.669971664662
0.670091309798
0.670167923366
0.670198489241
0.670198489241
0.670193514862
0.670173529967
0.670136204261
0.670082967271
0.670016616767
0.669941255088
0.669862211079
0.669785861067
0.669720661915
0.669674568555
0.669649430416
0.669649430416
0.669651869166
0.669662779213
0.669684805006
0.669717507306
0.669759273169
0.66980767688
0.669859474127
0.669911190522
0.669957495195
0.669993322761
0.670022292893
0.670023256258
0.670022267942
0.670016051722
0.670002782182
0.669981220969
0.66995157933
0.669916100319
0.669877597704
0.669838970556
0.669802995971
0.669774942619
0.669753097468
0.669744571618
0.669748512758
0.669754435628
0.669768088188
0.669791750894
0.669824687586
0.669864186725
0.669906018677
0.669945702438
0.669979905575
0.670004251839
0.670020297783
0.670027903803
0.67001238594
0.670002747858
0.669985097981
0.669959774343
0.669931504153
0.669897913419
0.669862717885
0.669867086375
0.669904469646
0.669657513093
0.668106326104
0.656275426957
0.567896874626
0.163903606056
0.00194495603298
0.0004905
0.0004905
0.0004905
0.0004905
0.0004905
0.0004905
0.0004905
0.0004905
0.0004905
0.0004905
0.0004905
0.0004905
0.0004905
0.0004905
0.0004905
0.0004905
0.0004905
0.0004905
0.0004905
0.0004905
0.0004905
0.0004905
0.0004905
0.0004905
0.0004905
0.0004905
0.0004905
0.0004905
0.0004905
0.0004905
0.0004905
0.0004905
0.0004905
0.0004905
0.0004905
0.0004905
0.0004905
0.0004905
0.0004905
0.0004905
0.0004905
0.0004905
0.0004905
0.0004905
0.0004905
0.0004905
0.0004905
0.0004905
0.0004905
0.0004905
0.0004905
0.0004905
0.0004905
0.0004905
0.0004905
0.0004905
0.0004905
0.0004905
0.0004905
0.0004905
0.0004905
0.0004905
0.0004905
0.0004905
0.0004905
0.0004905
0.0004905
0.0004905
0.0004905
0.0004905
0.0004905
0.0004905
0.0004905
0.0004905
0.0004905
0.0004905
0.0004905
0.0004905
0.0004905
0.0004905
0.0004905
0.0004905
0.0004905
0.0004905
0.0004905
0.0004905
0.0004905
0.0004905
0.0004905
0.0004905
0.0004905
0.0004905
0.0004905
0.0004905
0.0004905
0.0004905
0.0004905
0.0004905
0.0004905
0.0004905
0.0004905
0.0004905
0.0004905
0.0004905
0.0004905
0.0004905
0.0004905
0.0004905
0.0004905
0.0004905
0.0004905
0.0004905
0.0004905
0.0004905
0.0004905
0.0004905
0.0004905
0.0004905
0.0004905
0.0004905
0.0004905
0.0004905
0.0004905
0.0004905
0.0004905
0.0004905
0.0004905
0.0004905
0.0004905
0.0004905
0.0004905
0.0004905
0.0004905
0.0004905
0.0004905
0.0004905
0.0004905
0.0004905
0.0004905
0.0004905
0.0004905
0.0004905
0.0004905
0.0004905
0.0004905
0.0004905
0.0004905
0.0004905
0.0004905
0.0004905
0.0004905
0.0004905
0.0004905
0.0004905
0.0004905
0.0004905
0.0004905
0.0004905
0.0004905
0.0004905
0.0004905
0.0004905
0.0004905
0.0004905
0.0004905
0.0004905
0.0004905
0.0004905
0.0004905
0.0004905
0.0004905
0.0004905
0.0004905
0.0004905
0.0004905
0.0004905
0.0004905
0.0004905
0.0004905
0.0004905
0.0004905
0.0004905
0.0004905
0.0004905
0.0004905
0.0004905
0.0004905
0.0004905
0.0004905
0.0004905
0.0004905
0.0004905
)
;

boundaryField
{
    inflow
    {
        type            calculated;
        value           uniform -1.22625;
    }
    outflow
    {
        type            calculated;
        value           uniform 0.0004905;
    }
    sides
    {
        type            empty;
    }
    topAndBottom
    {
        type            empty;
    }
}


// ************************************************************************* //
