/*--------------------------------*- C++ -*----------------------------------*\
  =========                 |
  \\      /  F ield         | OpenFOAM: The Open Source CFD Toolbox
   \\    /   O peration     | Website:  https://openfoam.org
    \\  /    A nd           | Version:  13
     \\/     M anipulation  |
\*---------------------------------------------------------------------------*/
FoamFile
{
    format      ascii;
    class       surfaceScalarField;
    location    "1";
    object      Dp1;
}
// * * * * * * * * * * * * * * * * * * * * * * * * * * * * * * * * * * * * * //

dimensions      [0 3 -1 0 0 0 0];

internalField   nonuniform List<scalar> 
799
(
0
0
0
0
0
0
0
0
0
0
0
0
0
0
0
0
0
0
0
0
0
0
0
0
0
0
0
0
0
0
0
0
0
0
0
0
0
0
0
0
0
0
0
0
0
0
0
0
0
0
0
0
0
0
0
0
0
0
0
0
0
0
0
0
0
0
0
0
0
0
0
0
0
0
0
0
0
0
0
0
0
0
0
0
0
0
0
0
0
0
0
0
0
0
0
0
0
0
0
0
0
0
0
0
0
0
0
0
0
0
0
0
0
0
0
0
0
0
0
0
0
0
0
0
0
0
0
0
0
0
0
0
0
0
0
0
0
0
0
0
0
0
0
0
0
0
0
0
0
0
0
0
0
0
0
0
0
0
0
0
0
0
0
0
0
0
0
0
0
0
0
0
0
0
0
0
0
0
0
0
0
0
0
0
0
0
0
0
0
0
0
0
0
0
0
0
0
0
0
0
0
0
0
0
0
0
0
0
0
0
0
0
0
0
0
0
0
0
0
-6.77626357803e-21
-0.000561770302721
-0.00315224256276
-0.00655260142015
-0.0102420364585
-0.014034194339
-0.0178600515088
-0.0216928764105
-0.0255206711116
-0.029337136882
-0.0331383988478
-0.0369217755323
-0.0406853004453
-0.0444274723691
-0.0481471247435
-0.0518433360598
-0.0555153691361
-0.0591626281948
-0.0627846285405
-0.0663809751739
-0.0699513463729
-0.0734954798895
-0.0770131611071
-0.0805042137253
-0.0839684933256
-0.0874058831816
-0.0908162909891
-0.0941996454468
-0.0975558925603
-0.100884992358
-0.104186916724
-0.107461648359
-0.110709180212
-0.113929514586
-0.11712266169
-0.120288638055
-0.123427465436
-0.126539170442
-0.129623784588
-0.132681344204
-0.135711889873
-0.138715465553
-0.141692117851
-0.144641895757
-0.147564850783
-0.150461037125
-0.153330511526
-0.1561733328
-0.158989561305
-0.161779258675
-0.164542487884
-0.167279313451
-0.169989801505
-0.172674019573
-0.175332036223
-0.177963920788
-0.180569743331
-0.183149574802
-0.185703487169
-0.188231553394
-0.190733847232
-0.19321044301
-0.195661415509
-0.19808684
-0.200486792321
-0.202861348894
-0.205210586665
-0.207534583023
-0.209833415795
-0.212107163302
-0.214355904399
-0.216579718403
-0.218778684921
-0.220952883684
-0.223102394515
-0.225227297452
-0.22732767294
-0.229403601926
-0.231455165788
-0.233482446134
-0.235485524634
-0.237464482989
-0.239419403041
-0.241350366929
-0.243257457154
-0.245140756502
-0.247000347898
-0.248836314296
-0.25064873869
-0.252437704212
-0.254203294239
-0.255945592411
-0.25766468255
-0.259360648557
-0.261033574346
-0.262683543876
-0.264310641238
-0.265914950718
-0.267496556794
-0.269055544066
-0.270591997178
-0.272106000786
-0.273597639595
-0.275066998423
-0.276514162246
-0.27793921618
-0.279342245428
-0.280723335219
-0.282082570795
-0.283420037445
-0.284735820559
-0.286030005648
-0.287302678331
-0.288553924291
-0.289783829229
-0.290992478861
-0.292179958948
-0.293346355332
-0.294491753956
-0.295616240846
-0.296719902076
-0.297802823738
-0.298865091941
-0.299906792831
-0.300928012622
-0.30192883761
-0.30290935416
-0.303869648676
-0.30480980758
-0.305729917308
-0.306630064332
-0.307510335179
-0.308370816443
-0.309211594777
-0.310032756869
-0.310834389425
-0.311616579166
-0.312379412841
-0.313122977248
-0.31384735924
-0.314552645722
-0.315238923632
-0.315906279929
-0.316554801591
-0.317184575621
-0.317795689068
-0.318388229025
-0.318962282629
-0.319517937043
-0.320055279441
-0.320574397008
-0.321075376951
-0.321558306521
-0.322023273023
-0.32247036382
-0.322899666314
-0.323311267925
-0.323705256074
-0.324081718183
-0.324440741688
-0.324782414064
-0.32510682285
-0.325414055651
-0.325704200143
-0.325977344043
-0.326233575092
-0.326472981036
-0.326695649616
-0.326901668579
-0.327091125686
-0.327264108735
-0.327420705574
-0.327561004113
-0.327685092321
-0.327793058216
-0.327884989861
-0.327960975349
-0.328021102803
-0.328065460377
-0.328094136263
-0.3281072187
-0.328104795979
-0.328086956448
-0.32805378851
-0.328005380624
-0.327941821304
-0.327863199126
-0.327769602729
-0.327661120822
-0.327537842182
-0.327399855645
-0.327247250104
-0.327080114504
-0.326898537838
-0.326702609166
-0.326492417631
-0.326268052484
-0.326029603113
-0.325777159055
-0.32551081
-0.325230645787
-0.324936756378
-0.324629231847
-0.324308162353
-0.323973638143
-0.323625749556
-0.323264587047
-0.322890241221
-0.322502802861
-0.322102362951
-0.321689012695
-0.321262843515
-0.320823947045
-0.320372415123
-0.319908339793
-0.319431813304
-0.318942928131
-0.318441776988
-0.317928452856
-0.317403048996
-0.316865658963
-0.316316376622
-0.315755296161
-0.315182512101
-0.314598119322
-0.314002213083
-0.313394889049
-0.312776243318
-0.312146372451
-0.311505373497
-0.310853344033
-0.310190382198
-0.30951658674
-0.308832057064
-0.308136893293
-0.307431196321
-0.306715067882
-0.305988610618
-0.305251928153
-0.304505125171
-0.303748307512
-0.302981582258
-0.302205057841
-0.301418844152
-0.300623052658
-0.299817796535
-0.299003190817
-0.298179352559
-0.297346401015
-0.29650445783
-0.295653647234
-0.294794096248
-0.293925934877
-0.293049296317
-0.292164317151
-0.291271137569
-0.290369901595
-0.289460757343
-0.288543857286
-0.28761935856
-0.286687423279
-0.28574821886
-0.284801918363
-0.283848700824
-0.282888751599
-0.281922262714
-0.280949433222
-0.279970469586
-0.27898558609
-0.277995005273
-0.276998958371
-0.275997685706
-0.274991436914
-0.273980470787
-0.27296505435
-0.271945460572
-0.27092196393
-0.269894833076
-0.268864320655
-0.267830652911
-0.266794028084
-0.265754646427
-0.26471282224
-0.263669277188
-0.262625788653
-0.2615864953
-0.260560281321
-0.259564385104
-0.258630358459
-0.257814002327
-0.257185077539
-0.256855346405
-0.256855346405
-0.256904778746
-0.257143534097
-0.257646120554
-0.258377507985
-0.25923909916
-0.26009528855
-0.260803961954
-0.261197603727
-0.261238745213
-0.261230035058
-0.261164158109
-0.261030164834
-0.26083648071
-0.260604977881
-0.260359802153
-0.260125574072
-0.25992889374
-0.259799490303
-0.259751859621
-0.259751859621
-0.259760072316
-0.259792631543
-0.259851652157
-0.259934260022
-0.260035789766
-0.260149367287
-0.260266189283
-0.260376250693
-0.260468242423
-0.260527993937
-0.260550713848
-0.260550713848
-0.260546804911
-0.260531112447
-0.260502079872
-0.260460846158
-0.260409515517
-0.260351260471
-0.260290257135
-0.260231497607
-0.260181185096
-0.260145654143
-0.260128499324
-0.260128499324
-0.260130372883
-0.260138732326
-0.260155467739
-0.260180112798
-0.260211380798
-0.260247423427
-0.260285833963
-0.260323869676
-0.260358030405
-0.260384811308
-0.260402550812
-0.260404488589
-0.260404116275
-0.260400464582
-0.26039123994
-0.260376253536
-0.26035578644
-0.260331043071
-0.2603037104
-0.260275716691
-0.260249129156
-0.260227012507
-0.260210765795
-0.260203827828
-0.260204316357
-0.260206591041
-0.260214045076
-0.26022776622
-0.26024763925
-0.260272395964
-0.260299807865
-0.260327296621
-0.26035256919
-0.260372952636
-0.260387383049
-0.260394853707
-0.260391586308
-0.260388051451
-0.26038063686
-0.26036803943
-0.260350974457
-0.260329072389
-0.260304421165
-0.260289757688
-0.260285099133
-0.260187063579
-0.259671623183
-0.256142143286
-0.231758615488
-0.0936373110498
-0.00158559873989
0
0
0
0
0
0
0
0
0
0
0
0
0
0
0
0
0
0
0
0
0
0
0
0
0
0
0
0
0
0
0
0
0
0
0
0
0
0
0
0
0
0
0
0
0
0
0
0
0
0
0
0
0
0
0
0
0
0
0
0
0
0
0
0
0
0
0
0
0
0
0
0
0
0
0
0
0
0
0
0
0
0
0
0
0
0
0
0
0
0
0
0
0
0
0
0
0
0
0
0
0
0
0
0
0
0
0
0
0
0
0
0
0
0
0
0
0
0
0
0
0
0
0
0
0
0
0
0
0
0
0
0
0
0
0
0
0
0
0
0
0
0
0
0
0
0
0
0
0
0
0
0
0
0
0
0
0
0
0
0
0
0
0
0
0
0
0
0
0
0
0
0
0
0
0
0
0
0
0
0
0
0
0
0
0
0
0
0
0
0
0
0
)
;

boundaryField
{
    inflow
    {
        type            calculated;
        value           uniform 0;
    }
    outflow
    {
        type            calculated;
        value           uniform 0;
    }
    sides
    {
        type            empty;
    }
    topAndBottom
    {
        type            empty;
    }
}


// ************************************************************************* //
