/*--------------------------------*- C++ -*----------------------------------*\
  =========                 |
  \\      /  F ield         | OpenFOAM: The Open Source CFD Toolbox
   \\    /   O peration     | Website:  https://openfoam.org
    \\  /    A nd           | Version:  13
     \\/     M anipulation  |
\*---------------------------------------------------------------------------*/
FoamFile
{
    format      ascii;
    class       volScalarField;
    location    "1";
    object      Q1;
}
// * * * * * * * * * * * * * * * * * * * * * * * * * * * * * * * * * * * * * //

dimensions      [];

internalField   nonuniform List<scalar> 
800
(
0.5
0.5
0.5
0.5
0.5
0.5
0.5
0.5
0.5
0.5
0.5
0.5
0.5
0.5
0.5
0.5
0.5
0.5
0.5
0.5
0.5
0.5
0.5
0.5
0.5
0.5
0.5
0.5
0.5
0.5
0.5
0.5
0.5
0.5
0.5
0.5
0.5
0.5
0.5
0.5
0.5
0.5
0.5
0.5
0.5
0.5
0.5
0.5
0.5
0.5
0.5
0.5
0.5
0.5
0.5
0.5
0.5
0.5
0.5
0.5
0.5
0.5
0.5
0.5
0.5
0.5
0.5
0.5
0.5
0.5
0.5
0.5
0.5
0.5
0.5
0.5
0.5
0.5
0.5
0.5
0.5
0.5
0.5
0.5
0.5
0.5
0.5
0.5
0.5
0.5
0.5
0.5
0.5
0.5
0.5
0.5
0.5
0.5
0.5
0.5
0.5
0.5
0.5
0.5
0.5
0.5
0.5
0.5
0.5
0.5
0.5
0.5
0.5
0.5
0.5
0.5
0.5
0.5
0.5
0.5
0.5
0.5
0.5
0.5
0.5
0.5
0.5
0.5
0.5
0.5
0.5
0.5
0.5
0.5
0.5
0.5
0.5
0.5
0.5
0.5
0.5
0.5
0.5
0.5
0.5
0.5
0.5
0.5
0.5
0.5
0.5
0.5
0.5
0.5
0.5
0.5
0.5
0.5
0.5
0.5
0.5
0.5
0.5
0.5
0.5
0.5
0.5
0.5
0.5
0.5
0.5
0.5
0.5
0.5
0.5
0.5
0.5
0.5
0.5
0.5
0.5
0.5
0.5
0.5
0.5
0.5
0.5
0.5
0.5
0.5
0.5
0.5
0.5
0.5
0.5
0.5
0.5
0.5
0.5
0.5
0.5
0.5
0.5
0.5
0.5
0.5
0.5
0.5
0.5
0.5
0.5
0.5
0.5
0.5
0.5
0.5
0.5
0.5
0.5
0.5
0.499955792714
0.499205192968
0.497817069303
0.496191187871
0.494474366872
0.492719310805
0.490946172773
0.489163026198
0.487373810421
0.485580730915
0.483785234788
0.481988361285
0.480190892574
0.47839344139
0.476596495657
0.474800450583
0.473005629633
0.471212300342
0.46942068659
0.467630977943
0.465843336502
0.464057901666
0.462274793671
0.460494116652
0.45871596152
0.45694040847
0.455167528847
0.453397386297
0.451630037502
0.449865532908
0.44810391764
0.446345232484
0.444589514664
0.442836798246
0.441087114273
0.439340490891
0.437596953659
0.435856526011
0.434119229691
0.432385084971
0.430654110673
0.428926324121
0.427201741213
0.425480376645
0.423762244179
0.422047356821
0.420335726832
0.41862736566
0.41692228391
0.415220491433
0.413521997491
0.411826810905
0.410134940098
0.408446393039
0.406761177192
0.405079299516
0.403400766563
0.401725584584
0.4000537596
0.398385297384
0.396720203414
0.395058482848
0.393400140546
0.391745181126
0.390093609009
0.388445428433
0.386800643444
0.38515925791
0.383521275548
0.381886699971
0.380255534692
0.378627783087
0.377003448341
0.375382533428
0.373765041148
0.372150974207
0.37054033528
0.368933127027
0.367329352039
0.365729012774
0.364132111535
0.362538650496
0.360948631767
0.359362057443
0.357778929601
0.356199250259
0.354623021337
0.353050244641
0.351480921901
0.349915054811
0.348352645061
0.346793694318
0.345238204201
0.343686176248
0.342137611919
0.340592512625
0.339050879761
0.337512714714
0.335978018858
0.334446793518
0.332919039961
0.331394759397
0.329873953007
0.328356621959
0.326842767422
0.325332390546
0.323825492444
0.322322074183
0.320822136791
0.319325681275
0.317832708638
0.316343219878
0.314857215981
0.313374697901
0.31189566656
0.310420122848
0.308948067642
0.307479501818
0.306014426248
0.304552841792
0.303094749288
0.301640149547
0.300189043359
0.298741431503
0.29729731476
0.295856693904
0.294419569706
0.292985942916
0.291555814265
0.290129184469
0.288706054237
0.287286424276
0.285870295294
0.284457667995
0.283048543068
0.28164292119
0.280240803023
0.278842189228
0.277447080466
0.276055477396
0.27466738068
0.27328279097
0.271901708907
0.270524135129
0.269150070271
0.267779514969
0.266412469863
0.265048935591
0.263688912785
0.262332402069
0.260979404062
0.259629919386
0.258283948669
0.25694149255
0.255602551676
0.254267126694
0.252935218249
0.251606826977
0.25028195351
0.248960598485
0.247642762552
0.24632844638
0.245017650656
0.243710376084
0.242406623375
0.241106393243
0.239809686402
0.238516503563
0.237226845442
0.235940712766
0.234658106279
0.233379026745
0.232103474953
0.230831451718
0.229562957871
0.228297994264
0.227036561769
0.225778661271
0.224524293682
0.223273459936
0.222026160996
0.220782397858
0.219542171548
0.218305483129
0.217072333698
0.215842724391
0.214616656383
0.213394130895
0.21217514919
0.21095971258
0.209747822421
0.208539480111
0.207334687096
0.206133444872
0.204935754989
0.203741619067
0.202551038796
0.201364015955
0.200180552408
0.199000650107
0.197824311093
0.196651537482
0.195482331469
0.194316695322
0.193154631382
0.191996142075
0.190841229918
0.189689897532
0.188542147651
0.187397983133
0.186257406959
0.185120422237
0.183987032197
0.182857240198
0.181731049723
0.180608464391
0.179489487959
0.178374124338
0.177262377597
0.176154251972
0.17504975188
0.173948881921
0.172851646894
0.171758051805
0.170668101885
0.169581802605
0.168499159695
0.167420179165
0.166344867323
0.165273230807
0.164205276603
0.163141012086
0.162080445046
0.161023583734
0.159970436897
0.158921013826
0.157875324408
0.15683337917
0.155795189342
0.154760766914
0.153730124699
0.152703276403
0.151680236694
0.150661021282
0.149645646997
0.148634131874
0.147626495252
0.146622757866
0.145622941953
0.144627071362
0.143635171659
0.142647270237
0.14166339643
0.140683581622
0.139707859355
0.138736265455
0.137768838147
0.136805618186
0.135846648993
0.13489197679
0.133941650749
0.132995723129
0.132054249425
0.131117288512
0.130184902794
0.129257158356
0.128334125129
0.127415877067
0.126502492339
0.125594053521
0.124690647764
0.123792366864
0.122899307106
0.122011568629
0.121129253912
0.120252464808
0.11938129743
0.118515834514
0.117656136025
0.116802232006
0.115954129027
0.115111856795
0.114275609785
0.11344608783
0.112625213194
0.111817473693
0.111032232386
0.110287475008
0.109614151744
0.109060351827
0.108707561668
0.108601306746
0.108616037721
0.108719835536
0.109013622958
0.109493966945
0.110109543876
0.110772544227
0.111371907584
0.111787366861
0.111949115511
0.111946976335
0.111918424014
0.111837592575
0.111707816194
0.111542026325
0.111357230757
0.11117196726
0.111005820584
0.110878153383
0.110809761537
0.110800326159
0.110803401051
0.110819049117
0.110854876366
0.110909837743
0.110981175296
0.111064409467
0.111153510235
0.111241202689
0.111319304674
0.111379033917
0.11141073161
0.111415538378
0.111414076277
0.111406498714
0.111388814736
0.111361345721
0.111325288466
0.111282697142
0.11123644448
0.111190102835
0.111147920658
0.111114303727
0.111094737934
0.111090085116
0.111090718449
0.111094544093
0.111104455054
0.11112048851
0.111141972643
0.111167728026
0.11119612504
0.111225208914
0.111252685334
0.111275645766
0.111292302517
0.111299297203
0.111299255554
0.111297959858
0.11129324651
0.111284220631
0.111271010214
0.11125419467
0.111234752665
0.111213955627
0.111193232252
0.111174505065
0.111159637625
0.111149452043
0.111148361769
0.111148869528
0.111151742459
0.11115890039
0.111170571912
0.111186310029
0.111204978313
0.111225001241
0.111244747867
0.11126246044
0.11127645013
0.111286484894
0.111288057741
0.111287319805
0.111284839277
0.111278872415
0.111268935812
0.111254997336
0.111237462987
0.111220089022
0.111208774861
0.111183773684
0.111076856773
0.110450383233
0.105792669537
0.0778374786718
0.0228382873192
0.0100867194814
0.01
0.01
0.01
0.01
0.01
0.01
0.01
0.01
0.01
0.01
0.01
0.01
0.01
0.01
0.01
0.01
0.01
0.01
0.01
0.01
0.01
0.01
0.01
0.01
0.01
0.01
0.01
0.01
0.01
0.01
0.01
0.01
0.01
0.01
0.01
0.01
0.01
0.01
0.01
0.01
0.01
0.01
0.01
0.01
0.01
0.01
0.01
0.01
0.01
0.01
0.01
0.01
0.01
0.01
0.01
0.01
0.01
0.01
0.01
0.01
0.01
0.01
0.01
0.01
0.01
0.01
0.01
0.01
0.01
0.01
0.01
0.01
0.01
0.01
0.01
0.01
0.01
0.01
0.01
0.01
0.01
0.01
0.01
0.01
0.01
0.01
0.01
0.01
0.01
0.01
0.01
0.01
0.01
0.01
0.01
0.01
0.01
0.01
0.01
0.01
0.01
0.01
0.01
0.01
0.01
0.01
0.01
0.01
0.01
0.01
0.01
0.01
0.01
0.01
0.01
0.01
0.01
0.01
0.01
0.01
0.01
0.01
0.01
0.01
0.01
0.01
0.01
0.01
0.01
0.01
0.01
0.01
0.01
0.01
0.01
0.01
0.01
0.01
0.01
0.01
0.01
0.01
0.01
0.01
0.01
0.01
0.01
0.01
0.01
0.01
0.01
0.01
0.01
0.01
0.01
0.01
0.01
0.01
0.01
0.01
0.01
0.01
0.01
0.01
0.01
0.01
0.01
0.01
0.01
0.01
0.01
0.01
0.01
0.01
0.01
0.01
0.01
0.01
0.01
0.01
0.01
0.01
0.01
0.01
0.01
0.01
0.01
0.01
0.01
0.01
0.01
0.01
)
;

boundaryField
{
    inflow
    {
        type            zeroGradient;
    }
    outflow
    {
        type            zeroGradient;
    }
    sides
    {
        type            empty;
    }
    topAndBottom
    {
        type            empty;
    }
}


// ************************************************************************* //
