/*--------------------------------*- C++ -*----------------------------------*\
  =========                 |
  \\      /  F ield         | OpenFOAM: The Open Source CFD Toolbox
   \\    /   O peration     | Website:  https://openfoam.org
    \\  /    A nd           | Version:  13
     \\/     M anipulation  |
\*---------------------------------------------------------------------------*/
FoamFile
{
    format      ascii;
    class       volScalarField;
    location    "1";
    object      Q2;
}
// * * * * * * * * * * * * * * * * * * * * * * * * * * * * * * * * * * * * * //

dimensions      [];

internalField   nonuniform List<scalar> 
800
(
0
0
0
0
0
0
0
0
0
0
0
0
0
0
0
0
0
0
0
0
0
0
0
0
0
0
0
0
0
0
0
0
0
0
0
0
0
0
0
0
0
0
0
0
0
0
0
0
0
0
0
0
0
0
0
0
0
0
0
0
0
0
0
0
0
0
0
0
0
0
0
0
0
0
0
0
0
0
0
0
0
0
0
0
0
0
0
0
0
0
0
0
0
0
0
0
0
0
0
0
0
0
0
0
0
0
0
0
0
0
0
0
0
0
0
0
0
0
0
0
0
0
0
0
0
0
0
0
0
0
0
0
0
0
0
0
0
0
0
0
0
0
0
0
0
0
0
0
0
0
0
0
0
0
0
0
0
0
0
0
0
0
0
0
0
0
0
0
0
0
0
0
0
0
0
0
0
0
0
0
0
0
0
0
0
0
0
0
0
0
0
0
0
0
0
0
0
0
0
0
0
0
0
0
0
0
0
0
0
0
0
0
0
0
0
0
0
0
0
0
9.78839598886e-05
0.00175796560019
0.004818494388
0.00838704449015
0.0121360509714
0.0159481409618
0.0197785508756
0.0236093163278
0.0274316490483
0.0312406247446
0.0350330171351
0.038806517878
0.0425594041526
0.0462903454507
0.0499983007381
0.0536824421097
0.0573421039793
0.0609767467431
0.0645859310908
0.0681692992192
0.0717265595947
0.0752574740366
0.0787618471577
0.0822395186154
0.0856903579205
0.0891142607308
0.0925111454289
0.0958809494682
0.0992236258567
0.102539140493
0.105827470655
0.109088604234
0.112322538963
0.115529281168
0.11870884422
0.121861247209
0.124986514275
0.128084674499
0.131155761866
0.134199814893
0.137216875864
0.140206990029
0.143170205143
0.14610657145
0.149016141836
0.151898971819
0.1547551192
0.157584643551
0.160387605836
0.163164068338
0.165914094815
0.168637750623
0.171335102618
0.174006218847
0.176651168241
0.179270020475
0.181862846054
0.184429716451
0.186970704157
0.18948588254
0.191975325633
0.194439107976
0.196877304586
0.199289991024
0.20167724343
0.204039138494
0.206375753379
0.208687165687
0.210973453492
0.213234695392
0.215470970487
0.217682358243
0.219868938318
0.222030790472
0.224167994625
0.226280631025
0.228368780387
0.230432523891
0.232471943032
0.234487119438
0.236478134777
0.238445070812
0.240388009541
0.2423070333
0.244202224744
0.246073666728
0.24792144218
0.249745634064
0.251546325439
0.253323599568
0.25507753997
0.256808230384
0.258515754668
0.260200196721
0.261861640471
0.263500169945
0.265115869337
0.266708823037
0.26827911559
0.269826831613
0.271352055749
0.272854872674
0.274335367152
0.275793624084
0.277229728524
0.278643765632
0.280035820621
0.281405978722
0.282754325197
0.284080945388
0.28538592475
0.286669348852
0.287931303347
0.289171873923
0.290391146285
0.29158920617
0.292766139382
0.293922031816
0.29505696946
0.296171038366
0.297264324614
0.298336914301
0.299388893553
0.300420348552
0.301431365557
0.302422030901
0.303392430968
0.30434265217
0.305272780934
0.306182903712
0.307073107005
0.307943477376
0.308794101452
0.309625065903
0.310436457425
0.311228362729
0.31200086855
0.312754061663
0.313488028894
0.314202857125
0.314898633277
0.315575444299
0.316233377156
0.316872518841
0.317492956378
0.318094776842
0.318678067348
0.319242915048
0.319789407107
0.320317630705
0.320827673037
0.321319621332
0.321793562871
0.322249584989
0.32268777507
0.323108220525
0.323511008773
0.323896227234
0.324263963337
0.324614304536
0.32494733834
0.325263152323
0.325561834128
0.325843471452
0.326108152024
0.326355963586
0.326586993881
0.326801330651
0.326999061651
0.327180274659
0.327345057501
0.327493498057
0.327625684266
0.327741704123
0.32784164567
0.327925596983
0.32799364617
0.328045881368
0.328082390752
0.328103262536
0.328108584986
0.328098446422
0.328072935221
0.328032139812
0.327976148683
0.327905050377
0.327818933504
0.327717886737
0.32760199882
0.327471358559
0.32732605482
0.32716617652
0.326991812628
0.326803052168
0.326599984243
0.326382698048
0.326151282906
0.325905828279
0.325646423782
0.32537315918
0.325086124376
0.324785409385
0.324471104324
0.324143299393
0.323802084884
0.323447551192
0.323079788848
0.322698888546
0.32230494117
0.321898037817
0.321478269799
0.321045728645
0.32060050609
0.320142694073
0.319672384739
0.319189670451
0.3186946438
0.318187397636
0.317668025077
0.317136619533
0.316593274712
0.31603808464
0.31547114367
0.3148925465
0.3143023882
0.313700764229
0.313087770468
0.312463503245
0.311828059361
0.31118153613
0.310524031405
0.309855643627
0.30917647187
0.308486615896
0.307786176208
0.30707525412
0.306353951814
0.30562237242
0.304880620087
0.304128800074
0.303367018836
0.302595384127
0.301814005101
0.301022992431
0.300222458434
0.299412517207
0.298593284788
0.297764879325
0.296927421261
0.296081033526
0.295225841739
0.294361974408
0.293489563125
0.29260874277
0.291719651721
0.290822432075
0.289917229889
0.289004195445
0.288083483538
0.287155253782
0.286219670932
0.285276905216
0.284327132671
0.283370535481
0.282407302322
0.281437628716
0.280461717405
0.279479778744
0.278492031137
0.277498701476
0.276500025587
0.275496248562
0.274487624856
0.273474417814
0.272456898127
0.271435340469
0.270410017386
0.269381189784
0.268349094759
0.267313935479
0.266275887281
0.265235153995
0.264192146474
0.263147922479
0.262105129404
0.261069802015
0.260054504024
0.259083471502
0.258198769451
0.257466237019
0.25699696604
0.256855346405
0.256874983477
0.257013234326
0.257403750701
0.258039623461
0.25884970062
0.259716107819
0.260493957536
0.261029824547
0.26123775872
0.261235038967
0.261198341895
0.261094346569
0.260927198572
0.260713330364
0.260474496951
0.260234566835
0.260019044557
0.259853126492
0.259763997275
0.259751859621
0.259755866158
0.259776252657
0.25982290106
0.259894418511
0.259987181797
0.260095330149
0.260211000965
0.260324704169
0.260426027949
0.260503282892
0.260543780972
0.260550713848
0.260548836642
0.260539104298
0.260516304317
0.260480813733
0.260434183265
0.260379067832
0.260319173822
0.260259067717
0.26020438107
0.260160761779
0.260135420019
0.260128499324
0.260129322434
0.260134292417
0.260147207634
0.26016816661
0.260196323089
0.260230153549
0.260267501983
0.260305858742
0.260342197298
0.26037205296
0.260395308539
0.26040482163
0.26040429018
0.260402375713
0.260395856605
0.260383625553
0.260365705778
0.260342953988
0.260316807507
0.260289082472
0.260261599441
0.260237264078
0.260218312519
0.260202790857
0.260204303225
0.260205412611
0.260210144395
0.260220919155
0.260237996541
0.260260561028
0.260286781077
0.260314225523
0.260340643126
0.260363484154
0.260380448991
0.260394870151
0.260393239851
0.260389889863
0.2603849211
0.260374421305
0.260359429846
0.260339784744
0.260315144824
0.260295268601
0.26029561671
0.260253663823
0.259960969852
0.257910102267
0.241968101998
0.150863216702
0.0191166066732
6.63337035978e-05
0
0
0
0
0
0
0
0
0
0
0
0
0
0
0
0
0
0
0
0
0
0
0
0
0
0
0
0
0
0
0
0
0
0
0
0
0
0
0
0
0
0
0
0
0
0
0
0
0
0
0
0
0
0
0
0
0
0
0
0
0
0
0
0
0
0
0
0
0
0
0
0
0
0
0
0
0
0
0
0
0
0
0
0
0
0
0
0
0
0
0
0
0
0
0
0
0
0
0
0
0
0
0
0
0
0
0
0
0
0
0
0
0
0
0
0
0
0
0
0
0
0
0
0
0
0
0
0
0
0
0
0
0
0
0
0
0
0
0
0
0
0
0
0
0
0
0
0
0
0
0
0
0
0
0
0
0
0
0
0
0
0
0
0
0
0
0
0
0
0
0
0
0
0
0
0
0
0
0
0
0
0
0
0
0
0
0
0
0
0
0
0
)
;

boundaryField
{
    inflow
    {
        type            zeroGradient;
    }
    outflow
    {
        type            zeroGradient;
    }
    sides
    {
        type            empty;
    }
    topAndBottom
    {
        type            empty;
    }
}


// ************************************************************************* //
