/*--------------------------------*- C++ -*----------------------------------*\
  =========                 |
  \\      /  F ield         | OpenFOAM: The Open Source CFD Toolbox
   \\    /   O peration     | Website:  https://openfoam.org
    \\  /    A nd           | Version:  13
     \\/     M anipulation  |
\*---------------------------------------------------------------------------*/
FoamFile
{
    format      ascii;
    class       surfaceScalarField;
    location    "1";
    object      Dm1;
}
// * * * * * * * * * * * * * * * * * * * * * * * * * * * * * * * * * * * * * //

dimensions      [0 3 -1 0 0 0 0];

internalField   nonuniform List<scalar> 
1599
(
0
0
0
0
0
0
0
0
0
0
0
0
0
0
0
0
0
0
0
0
0
0
0
0
0
0
0
0
0
0
0
0
0
0
0
0
0
0
0
0
0
0
0
0
0
0
0
0
0
0
0
0
0
0
0
0
0
0
0
0
0
0
0
0
0
0
0
0
0
0
0
0
0
0
0
0
0
0
0
0
0
0
0
0
0
0
0
0
0
0
0
0
0
0
0
0
0
0
0
0
0
0
0
0
0
0
0
0
0
0
0
0
0
0
0
0
0
0
0
0
0
0
0
0
0
0
0
0
0
0
0
0
0
0
0
0
0
0
0
0
0
0
0
0
0
0
0
0
0
0
0
0
0
0
0
0
0
0
0
0
0
0
0
0
0
0
0
0
0
0
0
0
0
0
0
0
0
0
0
0
0
0
0
0
0
0
0
0
0
0
0
0
0
0
0
0
0
0
0
0
0
0
0
0
0
0
0
0
0
0
0
0
0
0
0
0
0
0
0
0
0
0
0
0
0
0
0
0
0
0
0
0
0
0
0
0
0
0
0
0
0
0
0
0
0
0
0
0
0
0
0
0
0
0
0
0
0
0
0
0
0
0
0
0
0
0
0
0
0
0
0
0
0
0
0
0
0
0
0
0
0
0
0
0
0
0
0
0
0
0
0
0
0
0
0
0
0
0
0
0
0
0
0
0
0
0
0
0
0
0
0
0
0
0
0
0
0
0
0
0
0
0
0
0
0
0
0
0
0
0
0
0
0
0
0
0
0
0
0
0
0
0
0
0
0
0
0
0
0
0
0
0
0
0
0
0
0
0
0
0
0
0
0
0
0
0
0
0
0
0
0
0
0
0
0
0
0
0
0
0
0
0
0
0
0
0
0
0
0
0
0
0
0
0
0
0
0
0
0
0
0
0
0
0
0
0
0
0
0
0
0
0
0
0
0
0
0
0
0
0
0
0
0
0
0
0
0
0
0
0
0
0
0
0
0
0
0
0
0
0
0
0
0
0.000545257860644
0.00200223414745
0.00378292447803
0.00568156408557
0.00762439842199
0.00958401534909
0.0115499266643
0.0135175750602
0.0154846826749
0.0174498767024
0.0194122097354
0.0213709726706
0.0233256079501
0.0252756680636
0.0272207871476
0.0291606622778
0.0310950398844
0.0330237062914
0.0349464808591
0.0368632102981
0.038773763546
0.0406780274004
0.0425759033811
0.0444673057777
0.0463521602792
0.0482304025456
0.0501019765362
0.0519668329053
0.0538249278822
0.0556762227442
0.0575206835881
0.0593582809854
0.0611889893354
0.0630127860934
0.064829651199
0.0666395668734
0.0684425176537
0.0702384903762
0.0720274739232
0.0738094588011
0.0755844367786
0.0773524007576
0.0791133448431
0.0808672644244
0.0826141560994
0.0843540174393
0.0860868467384
0.0878126429008
0.0895314054864
0.0912431348073
0.0929478319352
0.094645498579
0.0963361369109
0.0980197494609
0.0996963391299
0.101365909269
0.103028463724
0.10468400678
0.10633254305
0.107974077377
0.109608614825
0.111236160729
0.11285672075
0.11447030086
0.116076907279
0.117676546392
0.119269224722
0.120854948961
0.122433726011
0.124005562998
0.125570467239
0.127128446183
0.128679507372
0.130223658455
0.131760907218
0.13329126161
0.134814729735
0.136331319808
0.137841040111
0.13934389898
0.140839904823
0.142329066149
0.14381139159
0.145286889891
0.146755569897
0.14821744052
0.149672510727
0.151120789532
0.152562286001
0.153997009252
0.155424968465
0.15684617288
0.158260631805
0.159668354612
0.161069350727
0.162463629619
0.163851200796
0.1652320738
0.166606258214
0.167973763668
0.169334599837
0.170688776439
0.172036303224
0.173377189972
0.174711446493
0.176039082629
0.177360108258
0.178674533294
0.179982367678
0.181283621377
0.182578304381
0.183866426703
0.185147998386
0.1864230295
0.187691530139
0.188953510421
0.190208980481
0.191457950473
0.192700430573
0.193936430979
0.19516596191
0.196389033603
0.197605656314
0.198815840313
0.200019595887
0.201216933345
0.202407863013
0.203592395234
0.204770540364
0.205942308763
0.207107710799
0.208266756848
0.209419457297
0.210565822558
0.211705863065
0.212839589277
0.213967011675
0.215088140747
0.216202986991
0.2173115609
0.218413872965
0.21950993368
0.220599753551
0.221683343098
0.22276071286
0.223831873392
0.224896835263
0.225955609047
0.227008205321
0.228054634669
0.229094907682
0.230129034958
0.231157027106
0.232178894744
0.233194648496
0.234204298993
0.235207856872
0.236205332778
0.237196737363
0.238182081285
0.23916137521
0.24013462981
0.241101855759
0.242063063742
0.243018264445
0.243967468564
0.2449106868
0.24584792986
0.246779208453
0.247704533295
0.248623915107
0.249537364615
0.250444892551
0.251346509652
0.252242226658
0.253132054313
0.254016003369
0.254894084577
0.255766308697
0.256632686491
0.257493228728
0.258347946178
0.259196849615
0.260039949817
0.260877257568
0.261708783654
0.262534538865
0.263354533994
0.26416877984
0.264977287202
0.265780066884
0.266577129693
0.267368486441
0.268154147941
0.26893412501
0.269708428469
0.270477069141
0.271240057852
0.27199740543
0.272749122708
0.273495220521
0.274235709707
0.274970601107
0.275699905562
0.276423633919
0.277141797027
0.277854405736
0.278561470899
0.279263003373
0.279959014017
0.28064951369
0.281334513256
0.282014023583
0.28268805554
0.283356619999
0.284019727838
0.284677389931
0.285329617156
0.285976420391
0.28661781051
0.287253798388
0.287884394899
0.288509610922
0.289129457338
0.289743945036
0.290353084916
0.290956887881
0.291555364845
0.292148526719
0.292736384416
0.293318948841
0.293896230896
0.294468241479
0.295034991486
0.295596491815
0.296152753368
0.296703787057
0.297249603794
0.2977902145
0.298325630096
0.298855861506
0.299380919652
0.299900815457
0.300415559842
0.300925163731
0.301429638049
0.301928993722
0.302423241679
0.30291239285
0.303396458169
0.303875448568
0.304349374983
0.30481824835
0.305282079607
0.305740879692
0.306194659545
0.306643430107
0.307087202322
0.307525987132
0.307959795484
0.308388638324
0.3088125266
0.30923147126
0.309645483256
0.310054573537
0.310458753058
0.310858032771
0.311252423632
0.311641936597
0.312026582623
0.312406372669
0.312781317694
0.313151428659
0.313516716529
0.313877192267
0.314232866839
0.314583751213
0.314929856357
0.315271193239
0.315607772827
0.315939606088
0.316266703987
0.316589077489
0.316906737556
0.317219695157
0.317527961259
0.317831546838
0.318130462873
0.31842472035
0.318714330258
0.318999303591
0.319279651339
0.319555384493
0.319826514038
0.320093050955
0.320355006222
0.320612390816
0.320865215715
0.321113491898
0.321357230351
0.321596442063
0.321831138027
0.322061329239
0.322287026696
0.322508241396
0.322724984334
0.322937266509
0.323145098914
0.323348492545
0.323547458401
0.32374200748
0.32393215078
0.324117899305
0.324299264056
0.324476256039
0.324648886257
0.324817165716
0.324981105424
0.325140716387
0.325296009614
0.325446996113
0.325593686897
0.325736092975
0.325874225361
0.326008095069
0.326137713112
0.326263090506
0.326384238269
0.326501167417
0.32661388897
0.326722413948
0.326826753371
0.326926918262
0.327022919643
0.32711476854
0.327202475976
0.32728605298
0.327365510578
0.3274408598
0.327512111675
0.327579277234
0.327642367511
0.327701393538
0.32775636635
0.327807296984
0.327854196477
0.327897075868
0.327935946196
0.327970818503
0.328001703832
0.328028613226
0.328051557731
0.328070548394
0.328085596263
0.328096712387
0.328103907819
0.32810719361
0.328106580816
0.328102080491
0.328093703694
0.328081461483
0.328065364919
0.328045425066
0.328021652987
0.327994059747
0.327962656416
0.327927454063
0.327888463759
0.327845696578
0.327799163596
0.32774887589
0.32769484454
0.327637080627
0.327575595237
0.327510399454
0.327441504367
0.327368921068
0.327292660649
0.327212734207
0.327129152838
0.327041927645
0.32695106973
0.3268565902
0.326758500164
0.326656810735
0.326551533027
0.326442678159
0.326330257255
0.326214281438
0.326094761839
0.32597170959
0.325845135823
0.325715051677
0.32558146829
0.325444396803
0.325303848359
0.325159834103
0.325012365183
0.324861452753
0.32470710797
0.324549342002
0.32438816602
0.324223591205
0.324055628748
0.323884289845
0.323709585697
0.32353152751
0.323350126493
0.323165393856
0.32297734081
0.322785978569
0.322591318345
0.322393371358
0.322192148832
0.321987661998
0.321779922096
0.321568940375
0.321354728093
0.321137296517
0.320916656921
0.320692820587
0.320465798803
0.320235602862
0.320002244064
0.319765733713
0.319526083122
0.31928330361
0.319037406503
0.318788403139
0.318536304861
0.318281123025
0.318022868994
0.31776155414
0.317497189844
0.317229787499
0.316959358506
0.316685914273
0.316409466224
0.316130025788
0.315847604408
0.315562213537
0.315273864641
0.314982569196
0.314688338693
0.314391184631
0.314091118528
0.31378815191
0.31348229632
0.313173563315
0.312861964467
0.312547511361
0.312230215601
0.311910088805
0.311587142609
0.311261388669
0.310932838654
0.310601504257
0.310267397189
0.30993052918
0.309590911985
0.309248557377
0.308903477157
0.308555683146
0.308205187193
0.307852001172
0.307496136986
0.307137606563
0.306776421865
0.306412594879
0.306046137627
0.305677062163
0.305305380571
0.304931104973
0.304554247527
0.304174820428
0.303792835912
0.303408306258
0.303021243793
0.30263166089
0.302239569975
0.301844983528
0.301447914085
0.30104837424
0.300646376646
0.300241934017
0.299835059127
0.299425764814
0.29901406398
0.298599969592
0.298183494688
0.297764652379
0.29734345585
0.296919918372
0.296494053299
0.296065874077
0.29563539425
0.295202627457
0.294767587442
0.294330288054
0.293890743253
0.293448967108
0.293004973806
0.292558777652
0.292110393073
0.291659834625
0.291207116998
0.290752255019
0.29029526366
0.28983615804
0.289374953436
0.288911665284
0.288446309186
0.287978900916
0.287509456424
0.287037991844
0.286564523501
0.286089067911
0.285611641795
0.285132262082
0.284650945917
0.284167710667
0.283682573931
0.283195553545
0.282706667593
0.282215934412
0.281723372603
0.281229001042
0.280732838887
0.280234905588
0.279735220904
0.279233804909
0.278730678008
0.278225860954
0.277719374857
0.277211241211
0.276701481902
0.276190119233
0.275677175943
0.275162675226
0.274646640743
0.274129096641
0.273610067547
0.273089578558
0.272567655196
0.272044323323
0.271519608993
0.270993538192
0.27046613643
0.269937428091
0.269407435414
0.26887617695
0.268343665236
0.267809903354
0.267274879928
0.266738561984
0.266200884993
0.265661739423
0.265120953396
0.264578271942
0.264033335393
0.263485663657
0.262934660707
0.262379666458
0.261820103435
0.26125579561
0.260687570061
0.260118291877
0.259554561039
0.259009034304
0.25850311658
0.258073447823
0.257773889725
0.257646220843
0.257646220843
0.257687961871
0.257866138254
0.258207108377
0.258687321204
0.259255810006
0.259838924597
0.260346128799
0.260674612923
0.260783503716
0.260783503716
0.260760095833
0.260682637094
0.260562175549
0.260411860669
0.260248159792
0.260090498591
0.259959465166
0.259880218144
0.259859872378
0.259859872378
0.259871826775
0.259909528963
0.259969783662
0.260049649211
0.260143449253
0.260243150606
0.260339329753
0.260421108128
0.260476362075
0.260498307198
0.260498307198
0.260495245615
0.260482603831
0.260458996253
0.260425504596
0.260383924721
0.260336821952
0.2602875078
0.260239894404
0.260198609464
0.26016839037
0.260153911146
0.260153911146
0.260155203539
0.260161340335
0.260174326765
0.260194044475
0.260219521315
0.260249274128
0.260281276252
0.260312982276
0.260341420792
0.260363744154
0.260375941373
0.260376746324
0.260376228092
0.260373191974
0.260365438862
0.260353183626
0.260336785441
0.260317068244
0.260295215892
0.260272764703
0.260251559684
0.260233847044
0.260222268106
0.260218457081
0.260218457081
0.260219841825
0.260225240051
0.260235032526
0.260248958826
0.260266434896
0.260286429851
0.260307493481
0.260327843659
0.260345399094
0.260357374809
0.260362468241
0.260362468241
0.260361533858
0.260357472657
0.26034939549
0.260337431259
0.260322086489
0.260304152807
0.260284745748
0.260265304158
0.260247537395
0.260233303332
0.260225323119
0.260223703536
0.260223672411
0.260225688862
0.260231746442
0.2602416137
0.260255184037
0.260271924408
0.260290903798
0.260310865058
0.260330258982
0.260347090205
0.260359567808
0.260365329799
0.260365329799
0.260364627971
0.260361247525
0.260354033187
0.260342980194
0.260328486282
0.260311207315
0.260292139432
0.260272581327
0.260254113145
0.260238765444
0.26022842218
0.260224836832
0.260224836832
0.260225895367
0.260230176076
0.26023811293
0.260249566111
0.260264170471
0.26028123333
0.260299754522
0.260318522329
0.260336033273
0.260350300132
0.260360365642
0.260362748082
0.260362748082
0.260361462477
0.260356743126
0.260348504412
0.260336823423
0.260322061962
0.260304967651
0.260286604857
0.260268262117
0.2602518102
0.260238709306
0.26022989609
0.260231193242
0.260232146698
0.260234681213
0.260240757446
0.260249985384
0.260262244087
0.260277043988
0.260293559155
0.260310717197
0.260327212257
0.26034150687
0.260352215199
0.260356754563
0.260356457645
0.260355792408
0.260353232202
0.26034715862
0.260337626411
0.2603249644
0.260309843098
0.260293197099
0.260276228963
0.260260317423
0.260246998363
0.26023771834
0.260235692907
0.260235799222
0.260236629503
0.260240445513
0.260248182735
0.260259675633
0.260274333562
0.260291155141
0.260308796911
0.260325792061
0.260340789122
0.260352602437
0.260359910038
0.260360375291
0.260360375291
0.260359035388
0.260354282264
0.260345352135
0.26033179097
0.260313127093
0.260295006622
0.260291375795
0.260266528846
0.260108859313
0.259221699519
0.252461184639
0.208560571718
0.0459015527004
-2.77555756156e-19
0
0
0
0
0
0
0
0
0
0
0
0
0
0
0
0
0
0
0
0
0
0
0
0
0
0
0
0
0
0
0
0
0
0
0
0
0
0
0
0
0
0
0
0
0
0
0
0
0
0
0
0
0
0
0
0
0
0
0
0
0
0
0
0
0
0
0
0
0
0
0
0
0
0
0
0
0
0
0
0
0
0
0
0
0
0
0
0
0
0
0
0
0
0
0
0
0
0
0
0
0
0
0
0
0
0
0
0
0
0
0
0
0
0
0
0
0
0
0
0
0
0
0
0
0
0
0
0
0
0
0
0
0
0
0
0
0
0
0
0
0
0
0
0
0
0
0
0
0
0
0
0
0
0
0
0
0
0
0
0
0
0
0
0
0
0
0
0
0
0
0
0
0
0
0
0
0
0
0
0
0
0
0
0
0
0
0
0
0
0
0
0
0
0
0
0
0
0
0
0
0
0
0
0
0
0
0
0
0
0
0
0
0
0
0
0
0
0
0
0
0
0
0
0
0
0
0
0
0
0
0
0
0
0
0
0
0
0
0
0
0
0
0
0
0
0
0
0
0
0
0
0
0
0
0
0
0
0
0
0
0
0
0
0
0
0
0
0
0
0
0
0
0
0
0
0
0
0
0
0
0
0
0
0
0
0
0
0
0
0
0
0
0
0
0
0
0
0
0
0
0
0
0
0
0
0
0
0
0
0
0
0
0
0
0
0
0
0
0
0
0
0
0
0
0
0
0
0
0
0
0
0
0
0
0
0
0
0
0
0
0
0
0
0
0
0
0
0
0
0
0
0
0
0
0
0
0
0
0
0
0
0
0
0
0
0
0
0
0
0
0
0
0
0
0
0
0
0
0
0
0
0
0
0
0
0
)
;

boundaryField
{
    inflow
    {
        type            calculated;
        value           uniform -0;
    }
    outflow
    {
        type            calculated;
        value           uniform 0;
    }
    sides
    {
        type            empty;
    }
    topAndBottom
    {
        type            empty;
    }
}


// ************************************************************************* //
