/*--------------------------------*- C++ -*----------------------------------*\
  =========                 |
  \\      /  F ield         | OpenFOAM: The Open Source CFD Toolbox
   \\    /   O peration     | Website:  https://openfoam.org
    \\  /    A nd           | Version:  13
     \\/     M anipulation  |
\*---------------------------------------------------------------------------*/
FoamFile
{
    format      ascii;
    class       surfaceScalarField;
    location    "1";
    object      Dp2;
}
// * * * * * * * * * * * * * * * * * * * * * * * * * * * * * * * * * * * * * //

dimensions      [0 3 -1 0 0 0 0];

internalField   nonuniform List<scalar> 
1599
(
-1.22625
-1.22625
-1.22625
-1.22625
-1.22625
-1.22625
-1.22625
-1.22625
-1.22625
-1.22625
-1.22625
-1.22625
-1.22625
-1.22625
-1.22625
-1.22625
-1.22625
-1.22625
-1.22625
-1.22625
-1.22625
-1.22625
-1.22625
-1.22625
-1.22625
-1.22625
-1.22625
-1.22625
-1.22625
-1.22625
-1.22625
-1.22625
-1.22625
-1.22625
-1.22625
-1.22625
-1.22625
-1.22625
-1.22625
-1.22625
-1.22625
-1.22625
-1.22625
-1.22625
-1.22625
-1.22625
-1.22625
-1.22625
-1.22625
-1.22625
-1.22625
-1.22625
-1.22625
-1.22625
-1.22625
-1.22625
-1.22625
-1.22625
-1.22625
-1.22625
-1.22625
-1.22625
-1.22625
-1.22625
-1.22625
-1.22625
-1.22625
-1.22625
-1.22625
-1.22625
-1.22625
-1.22625
-1.22625
-1.22625
-1.22625
-1.22625
-1.22625
-1.22625
-1.22625
-1.22625
-1.22625
-1.22625
-1.22625
-1.22625
-1.22625
-1.22625
-1.22625
-1.22625
-1.22625
-1.22625
-1.22625
-1.22625
-1.22625
-1.22625
-1.22625
-1.22625
-1.22625
-1.22625
-1.22625
-1.22625
-1.22625
-1.22625
-1.22625
-1.22625
-1.22625
-1.22625
-1.22625
-1.22625
-1.22625
-1.22625
-1.22625
-1.22625
-1.22625
-1.22625
-1.22625
-1.22625
-1.22625
-1.22625
-1.22625
-1.22625
-1.22625
-1.22625
-1.22625
-1.22625
-1.22625
-1.22625
-1.22625
-1.22625
-1.22625
-1.22625
-1.22625
-1.22625
-1.22625
-1.22625
-1.22625
-1.22625
-1.22625
-1.22625
-1.22625
-1.22625
-1.22625
-1.22625
-1.22625
-1.22625
-1.22625
-1.22625
-1.22625
-1.22625
-1.22625
-1.22625
-1.22625
-1.22625
-1.22625
-1.22625
-1.22625
-1.22625
-1.22625
-1.22625
-1.22625
-1.22625
-1.22625
-1.22625
-1.22625
-1.22625
-1.22625
-1.22625
-1.22625
-1.22625
-1.22625
-1.22625
-1.22625
-1.22625
-1.22625
-1.22625
-1.22625
-1.22625
-1.22625
-1.22625
-1.22625
-1.22625
-1.22625
-1.22625
-1.22625
-1.22625
-1.22625
-1.22625
-1.22625
-1.22625
-1.22625
-1.22625
-1.22625
-1.22625
-1.22625
-1.22625
-1.22625
-1.22625
-1.22625
-1.22625
-1.22625
-1.22625
-1.22625
-1.22625
-1.22625
-1.22625
-1.22625
-1.22625
-1.22625
-1.22625
-1.22625
-1.22625
-1.22625
-1.22625
-1.22625
-1.22625
-1.22625
-1.22625
-1.22625
-1.22625
-1.22625
-1.22625
-1.22625
-1.22625
-1.22625
-1.22625
-1.22625
-1.22625
-1.22625
-1.22625
-1.22625
-1.22625
-1.22625
-1.22625
-1.22625
-1.22625
-1.22625
-1.22625
-1.22625
-1.22625
-1.22625
-1.22625
-1.22625
-1.22625
-1.22625
-1.22625
-1.22625
-1.22625
-1.22625
-1.22625
-1.22625
-1.22625
-1.22625
-1.22625
-1.22625
-1.22625
-1.22625
-1.22625
-1.22625
-1.22625
-1.22625
-1.22625
-1.22625
-1.22625
-1.22625
-1.22625
-1.22625
-1.22625
-1.22625
-1.22625
-1.22625
-1.22625
-1.22625
-1.22625
-1.22625
-1.22625
-1.22625
-1.22625
-1.22625
-1.22625
-1.22625
-1.22625
-1.22625
-1.22625
-1.22625
-1.22625
-1.22625
-1.22625
-1.22625
-1.22625
-1.22625
-1.22625
-1.22625
-1.22625
-1.22625
-1.22625
-1.22625
-1.22625
-1.22625
-1.22625
-1.22625
-1.22625
-1.22625
-1.22625
-1.22625
-1.22625
-1.22625
-1.22625
-1.22625
-1.22625
-1.22625
-1.22625
-1.22625
-1.22625
-1.22625
-1.22625
-1.22625
-1.22625
-1.22625
-1.22625
-1.22625
-1.22625
-1.22625
-1.22625
-1.22625
-1.22625
-1.22625
-1.22625
-1.22625
-1.22625
-1.22625
-1.22625
-1.22625
-1.22625
-1.22625
-1.22625
-1.22625
-1.22625
-1.22625
-1.22625
-1.22625
-1.22625
-1.22625
-1.22625
-1.22625
-1.22625
-1.22625
-1.22625
-1.22625
-1.22625
-1.22625
-1.22625
-1.22625
-1.22625
-1.22625
-1.22625
-1.22625
-1.22625
-1.22625
-1.22625
-1.22625
-1.22625
-1.22625
-1.22625
-1.22625
-1.22625
-1.22625
-1.22625
-1.22625
-1.22625
-1.22625
-1.22625
-1.22625
-1.22625
-1.22625
-1.22625
-1.22625
-1.22625
-1.22625
-1.22625
-1.22625
-1.22625
-1.22625
-1.22625
-1.22625
-1.22625
-1.22625
-1.22625
-1.22625
-1.22625
-1.22625
-1.22625
-1.22625
-1.22625
-1.22625
-1.22625
-1.22625
-1.22625
-1.22625
-1.22625
-1.22625
-1.22625
-1.22625
-1.22625
-1.22625
-1.22625
-1.22625
-1.22625
-1.22625
-1.22625
-1.22625
-1.22625
-1.22625
-1.22625
-1.22625
-1.22625
-1.22625
-1.22625
-1.22625
-1.22625
-1.22625
-1.22625
-1.22625
-1.22625
-1.22625
-1.22625
-1.22625
-1.22625
-1.22625
-1.22625
-1.22625
-1.22625
-1.22625
-1.22625
-1.22625
-1.22625
-1.22625
-1.22625
-1.22625
-1.22625
-1.22625
-1.22625
-1.22625
-1.22625
-1.22625
-1.22504277574
-1.22182148042
-1.21789308323
-1.21371510832
-1.20945126834
-1.20516223308
-1.2008712026
-1.19658824351
-1.19231836638
-1.18806457404
-1.1838289178
-1.17961291101
-1.17541772633
-1.17124429107
-1.16709334906
-1.16296549961
-1.15886122699
-1.1547809239
-1.15072491016
-1.14669344666
-1.1426867448
-1.13870497339
-1.13474826492
-1.13081672212
-1.12691042358
-1.12302942792
-1.11917377593
-1.115343492
-1.11153858574
-1.10775905433
-1.10400488498
-1.10027605671
-1.09657254101
-1.09289430203
-1.08924129682
-1.0856134763
-1.08201078652
-1.07843316972
-1.07488056465
-1.07135290645
-1.06785012649
-1.06437215278
-1.06091891064
-1.05749032339
-1.05408631265
-1.0507067982
-1.04735169772
-1.04402092691
-1.04071439984
-1.03743202944
-1.03417372778
-1.03093940596
-1.02772897396
-1.02454234051
-1.02137941331
-1.01824009938
-1.01512430525
-1.012031937
-1.00896290009
-1.00591709923
-1.00289443848
-0.999894821443
-0.996918151441
-0.99396433161
-0.991033264783
-0.988124853377
-0.985238999385
-0.982375604492
-0.979534570242
-0.976715798105
-0.97391918945
-0.971144645439
-0.968392066987
-0.965661354814
-0.962952409563
-0.960265131891
-0.957599422472
-0.954955181922
-0.952332310732
-0.949730709248
-0.947150277741
-0.944590916499
-0.942052525893
-0.939535006386
-0.937038258501
-0.934562182779
-0.932106679749
-0.929671649941
-0.927256993893
-0.924862612181
-0.922488405444
-0.920134274399
-0.91780011987
-0.915485842781
-0.913191344156
-0.910916525096
-0.908661286772
-0.906425530435
-0.904209157429
-0.902012069219
-0.899834167397
-0.897675353677
-0.895535529881
-0.893414597938
-0.891312459889
-0.889229017903
-0.887164174289
-0.885117831497
-0.883089892113
-0.881080258848
-0.879088834544
-0.877115522181
-0.875160224886
-0.873222845943
-0.871303288786
-0.869401456994
-0.86751725429
-0.865650584545
-0.863801351786
-0.8619694602
-0.860154814138
-0.858357318109
-0.85657687678
-0.854813394975
-0.853066777684
-0.851336930068
-0.849623757464
-0.847927165376
-0.846247059467
-0.844583345551
-0.842935929591
-0.841304717706
-0.839689616191
-0.838090531531
-0.836507370416
-0.834940039743
-0.833388446602
-0.831852498263
-0.830332102155
-0.828827165853
-0.827337597081
-0.825863303723
-0.824404193841
-0.822960175697
-0.821531157754
-0.820117048678
-0.818717757322
-0.81733319272
-0.815963264078
-0.814607880774
-0.813266952374
-0.811940388627
-0.810628099475
-0.809329995049
-0.808045985667
-0.80677598183
-0.805519894227
-0.804277633735
-0.803049111422
-0.801834238547
-0.800632926558
-0.799445087093
-0.798270631974
-0.797109473217
-0.79596152303
-0.794826693812
-0.793704898156
-0.792596048847
-0.791500058859
-0.790416841359
-0.789346309704
-0.78828837745
-0.787242958344
-0.786209966329
-0.78518931554
-0.784180920305
-0.783184695146
-0.782200554781
-0.781228414123
-0.780268188282
-0.779319792562
-0.778383142462
-0.777458153678
-0.776544742099
-0.775642823813
-0.774752315103
-0.773873132452
-0.773005192537
-0.772148412232
-0.771302708609
-0.770467998935
-0.769644200678
-0.768831231501
-0.768029009267
-0.767237452038
-0.76645647807
-0.765686005821
-0.764925953944
-0.764176241294
-0.763436786923
-0.762707510084
-0.761988330227
-0.761279167001
-0.760579940255
-0.759890570038
-0.759210976596
-0.758541080379
-0.757880802033
-0.757230062406
-0.756588782545
-0.755956883698
-0.755334287313
-0.754720915041
-0.754116688738
-0.75352153046
-0.752935362465
-0.752358107209
-0.751789687346
-0.751230025722
-0.750679045378
-0.750136669545
-0.749602821651
-0.749077425329
-0.748560404419
-0.748051682977
-0.747551185279
-0.747058835817
-0.746574559297
-0.746098280625
-0.745629924898
-0.745169417402
-0.744716683603
-0.744271649154
-0.743834239904
-0.743404381902
-0.742982001411
-0.742567024906
-0.742159379076
-0.741758990822
-0.741365787249
-0.740979695663
-0.740600643568
-0.740228558666
-0.739863368856
-0.739505002241
-0.739153387124
-0.738808452016
-0.738470125629
-0.738138336883
-0.737813014899
-0.737494089004
-0.737181488726
-0.736875143797
-0.73657498415
-0.736280939924
-0.73599294146
-0.735710919302
-0.7354348042
-0.735164527105
-0.734900019174
-0.734641211766
-0.734388036445
-0.73414042498
-0.73389830934
-0.733661621701
-0.733430294443
-0.733204260148
-0.732983451603
-0.732767801801
-0.732557243935
-0.732351711407
-0.732151137821
-0.731955456986
-0.731764602919
-0.73157850984
-0.731397112177
-0.731220344561
-0.731048141829
-0.730880439017
-0.730717171363
-0.730558274303
-0.73040368347
-0.730253334697
-0.730107164018
-0.729965107675
-0.72982710212
-0.729693084019
-0.729562990258
-0.729436757941
-0.729314324386
-0.729195627118
-0.729080603866
-0.728969192553
-0.728861331293
-0.72875695839
-0.728656012341
-0.728558431842
-0.728464155794
-0.728373123308
-0.72828527371
-0.728200546541
-0.728118881555
-0.728040218718
-0.7279644982
-0.727891660377
-0.727821645821
-0.72775439531
-0.727689849821
-0.727627950534
-0.727568638837
-0.727511856323
-0.727457544792
-0.727405646254
-0.727356102921
-0.727308857216
-0.727263851764
-0.727221029395
-0.727180333148
-0.727141706264
-0.727105092191
-0.727070434581
-0.727037677296
-0.727006764399
-0.726977640164
-0.726950249067
-0.726924535792
-0.726900445229
-0.726877922474
-0.726856912829
-0.726837361801
-0.726819215105
-0.72680241866
-0.726786918594
-0.726772661239
-0.726759593135
-0.726747661026
-0.726736811864
-0.726726992808
-0.726718151222
-0.726710234678
-0.726703190952
-0.726696968029
-0.7266915141
-0.726686777561
-0.726682707017
-0.726679251279
-0.726676359363
-0.726673980493
-0.726672064101
-0.726670559825
-0.726669417508
-0.726668587202
-0.726668019166
-0.726667663866
-0.726667471973
-0.726667394367
-0.726667382136
-0.726667386572
-0.726667359178
-0.726667251661
-0.726667015939
-0.726666604132
-0.726665968574
-0.726665061801
-0.726663836559
-0.726662245802
-0.726660242691
-0.726657780594
-0.726654813088
-0.726651293957
-0.726647177195
-0.726642417
-0.726636967782
-0.726630784156
-0.726623820949
-0.726616033192
-0.726607376127
-0.726597805204
-0.72658727608
-0.726575744624
-0.726563166911
-0.726549499224
-0.726534698058
-0.726518720116
-0.726501522311
-0.726483061766
-0.726463295815
-0.726442182
-0.726419678077
-0.72639574201
-0.72637033197
-0.726343406338
-0.726314923701
-0.726284842852
-0.726253122788
-0.72621972271
-0.726184602029
-0.726147720362
-0.726109037538
-0.726068513603
-0.72602610882
-0.725981783677
-0.725935498881
-0.725887215363
-0.725836894273
-0.725784496975
-0.725729985044
-0.72567332026
-0.725614464604
-0.725553380257
-0.725490029602
-0.725424375221
-0.725356379909
-0.725286006671
-0.72521321873
-0.725137979531
-0.725060252743
-0.724980002259
-0.724897192192
-0.724811786874
-0.724723750855
-0.724633048895
-0.724539645968
-0.724443507259
-0.724344598164
-0.724242884294
-0.724138331477
-0.724030905756
-0.723920573395
-0.723807300877
-0.723691054905
-0.723571802404
-0.723449510517
-0.723324146607
-0.723195678256
-0.723064073266
-0.72292929966
-0.722791325682
-0.722650119795
-0.722505650687
-0.722357887268
-0.722206798671
-0.722052354252
-0.721894523594
-0.721733276503
-0.721568583012
-0.721400413377
-0.721228738086
-0.721053527849
-0.720874753608
-0.720692386532
-0.720506398022
-0.720316759706
-0.720123443447
-0.719926421339
-0.719725665709
-0.719521149119
-0.719312844367
-0.719100724486
-0.718884762749
-0.718664932666
-0.718441207991
-0.718213562718
-0.717981971085
-0.717746407576
-0.717506846921
-0.717263264099
-0.717015634336
-0.716763933107
-0.71650813614
-0.716248219411
-0.71598415915
-0.715715931841
-0.715443514222
-0.715166883295
-0.714886016323
-0.71460089084
-0.714311484655
-0.714017775857
-0.713719742824
-0.713417364221
-0.713110619011
-0.712799486452
-0.712483946096
-0.712163977794
-0.71183956169
-0.711510678223
-0.711177308127
-0.710839432434
-0.710497032477
-0.710150089901
-0.709798586664
-0.709442505055
-0.709081827698
-0.708716537564
-0.708346617981
-0.707972052638
-0.70759282559
-0.707208921266
-0.706820324469
-0.706427020383
-0.706028994574
-0.705626232998
-0.705218722007
-0.704806448356
-0.704389399217
-0.703967562182
-0.70354092528
-0.703109476985
-0.702673206226
-0.702232102398
-0.701786155374
-0.70133535551
-0.700879693661
-0.700419161187
-0.699953749966
-0.699483452408
-0.699008261463
-0.698528170638
-0.698043174009
-0.697553266233
-0.697058442568
-0.696558698881
-0.696054031673
-0.695544438083
-0.695029915918
-0.69451046366
-0.69398608049
-0.69345676631
-0.692922521757
-0.692383348233
-0.691839247924
-0.691290223829
-0.690736279784
-0.690177420497
-0.689613651573
-0.689044979554
-0.688471411946
-0.68789295726
-0.687309625039
-0.686721425889
-0.686128371493
-0.685530474604
-0.684927749019
-0.684320209482
-0.683707871525
-0.683090751171
-0.682468864444
-0.681842226583
-0.681210850794
-0.680574746329
-0.679933915574
-0.679288349691
-0.678638022243
-0.677982880015
-0.677322830113
-0.67665772239
-0.675987326537
-0.675311304287
-0.674629179785
-0.673940316528
-0.673243919277
-0.672539096328
-0.67182504475
-0.67110146214
-0.670369335323
-0.66963231357
-0.668898985058
-0.668186026644
-0.667521910769
-0.666955688268
-0.666559628902
-0.666390506901
-0.666390506901
-0.666445790226
-0.666681538773
-0.667131705987
-0.667763543865
-0.668508242099
-0.669268379154
-0.669926515371
-0.67035109311
-0.670491509928
-0.670491509928
-0.670461301141
-0.67036129187
-0.670205629556
-0.670011166648
-0.669799102673
-0.669594581864
-0.669424394208
-0.669321368514
-0.669294901865
-0.669294901865
-0.669310447785
-0.669359468035
-0.669437781324
-0.669541522958
-0.669663278058
-0.669792589841
-0.669917231672
-0.670023139712
-0.670094652268
-0.670123040205
-0.670123040205
-0.670119080022
-0.670102727158
-0.670072185248
-0.670028846473
-0.669975025349
-0.669914033442
-0.669850152436
-0.669788448422
-0.669734926973
-0.669695746765
-0.669676943208
-0.669676943208
-0.669678619782
-0.669686580247
-0.669703428904
-0.66972901484
-0.669762074547
-0.66980067788
-0.669842190296
-0.669883315968
-0.669920173977
-0.669949116476
-0.66996514953
-0.669966034128
-0.669965273652
-0.669961358182
-0.669951283848
-0.669935360885
-0.669914084849
-0.669888523838
-0.669860209521
-0.669831128453
-0.669803677656
-0.669780812576
-0.669765632377
-0.669761109611
-0.669761109611
-0.669762938053
-0.669770030862
-0.669782760159
-0.66980080343
-0.669823433781
-0.669849311506
-0.669876537433
-0.669902795529
-0.669925599685
-0.66994073315
-0.669947278729
-0.669947278729
-0.669946100339
-0.669941008472
-0.669930744442
-0.66991540313
-0.669895665155
-0.669872554562
-0.669847495771
-0.669822335765
-0.669799297495
-0.669780840693
-0.669770651856
-0.669767972515
-0.669767791676
-0.669770193107
-0.669778193014
-0.669791062454
-0.669808746585
-0.669830586794
-0.6698553489
-0.669881382337
-0.669906686686
-0.669928497955
-0.66994496498
-0.669952195854
-0.669952195854
-0.669951269986
-0.669946768266
-0.669937243941
-0.669922801722
-0.669903952637
-0.669881507802
-0.669856773008
-0.669831409912
-0.669807471407
-0.66978783759
-0.669773975551
-0.669769508296
-0.669769508296
-0.669770950623
-0.669776759822
-0.669787312557
-0.669802436406
-0.66982170076
-0.669844164934
-0.669868463185
-0.669893073105
-0.669915961004
-0.669934015157
-0.66994869668
-0.669950315905
-0.669950315905
-0.669948262507
-0.669941100327
-0.669929634515
-0.669913923131
-0.669894345816
-0.669871939641
-0.669848119233
-0.669824419878
-0.669803674014
-0.66978711486
-0.669773179069
-0.669779914568
-0.669782446186
-0.669787110799
-0.669796146981
-0.66980857604
-0.669824537032
-0.669843506773
-0.669864455149
-0.66988600501
-0.669906425663
-0.669923718599
-0.669936725319
-0.669940328981
-0.669937934482
-0.669936229233
-0.669932904166
-0.669925185357
-0.669913000189
-0.669896971069
-0.669877954305
-0.669857140475
-0.669836160705
-0.669816890242
-0.669801272026
-0.669790454899
-0.669792641716
-0.669793499346
-0.66979462812
-0.669799813379
-0.66980989082
-0.669824457576
-0.669842910341
-0.669864055665
-0.669886100022
-0.669907009309
-0.669924950636
-0.669938555995
-0.669946465582
-0.669942031371
-0.669942031371
-0.669939889743
-0.669933436982
-0.669922447104
-0.669905096954
-0.669878125171
-0.66985727244
-0.669883712042
-0.669848553589
-0.669426602235
-0.666572888461
-0.643743037901
-0.484846802594
-0.0640804082952
-0.0004905
-0.0004905
-0.0004905
-0.0004905
-0.0004905
-0.0004905
-0.0004905
-0.0004905
-0.0004905
-0.0004905
-0.0004905
-0.0004905
-0.0004905
-0.0004905
-0.0004905
-0.0004905
-0.0004905
-0.0004905
-0.0004905
-0.0004905
-0.0004905
-0.0004905
-0.0004905
-0.0004905
-0.0004905
-0.0004905
-0.0004905
-0.0004905
-0.0004905
-0.0004905
-0.0004905
-0.0004905
-0.0004905
-0.0004905
-0.0004905
-0.0004905
-0.0004905
-0.0004905
-0.0004905
-0.0004905
-0.0004905
-0.0004905
-0.0004905
-0.0004905
-0.0004905
-0.0004905
-0.0004905
-0.0004905
-0.0004905
-0.0004905
-0.0004905
-0.0004905
-0.0004905
-0.0004905
-0.0004905
-0.0004905
-0.0004905
-0.0004905
-0.0004905
-0.0004905
-0.0004905
-0.0004905
-0.0004905
-0.0004905
-0.0004905
-0.0004905
-0.0004905
-0.0004905
-0.0004905
-0.0004905
-0.0004905
-0.0004905
-0.0004905
-0.0004905
-0.0004905
-0.0004905
-0.0004905
-0.0004905
-0.0004905
-0.0004905
-0.0004905
-0.0004905
-0.0004905
-0.0004905
-0.0004905
-0.0004905
-0.0004905
-0.0004905
-0.0004905
-0.0004905
-0.0004905
-0.0004905
-0.0004905
-0.0004905
-0.0004905
-0.0004905
-0.0004905
-0.0004905
-0.0004905
-0.0004905
-0.0004905
-0.0004905
-0.0004905
-0.0004905
-0.0004905
-0.0004905
-0.0004905
-0.0004905
-0.0004905
-0.0004905
-0.0004905
-0.0004905
-0.0004905
-0.0004905
-0.0004905
-0.0004905
-0.0004905
-0.0004905
-0.0004905
-0.0004905
-0.0004905
-0.0004905
-0.0004905
-0.0004905
-0.0004905
-0.0004905
-0.0004905
-0.0004905
-0.0004905
-0.0004905
-0.0004905
-0.0004905
-0.0004905
-0.0004905
-0.0004905
-0.0004905
-0.0004905
-0.0004905
-0.0004905
-0.0004905
-0.0004905
-0.0004905
-0.0004905
-0.0004905
-0.0004905
-0.0004905
-0.0004905
-0.0004905
-0.0004905
-0.0004905
-0.0004905
-0.0004905
-0.0004905
-0.0004905
-0.0004905
-0.0004905
-0.0004905
-0.0004905
-0.0004905
-0.0004905
-0.0004905
-0.0004905
-0.0004905
-0.0004905
-0.0004905
-0.0004905
-0.0004905
-0.0004905
-0.0004905
-0.0004905
-0.0004905
-0.0004905
-0.0004905
-0.0004905
-0.0004905
-0.0004905
-0.0004905
-0.0004905
-0.0004905
-0.0004905
-0.0004905
-0.0004905
-0.0004905
-0.0004905
-0.0004905
-0.0004905
-0.0004905
-0.0004905
-0.0004905
-0.0004905
-0.0004905
-0.0004905
-0.0004905
-0.0004905
-0.0004905
-0.0004905
-0.0004905
-0.0004905
-0.0004905
-0.0004905
-0.0004905
-0.0004905
-0.0004905
-0.0004905
-0.0004905
-0.0004905
-0.0004905
-0.0004905
-0.0004905
-0.0004905
-0.0004905
-0.0004905
-0.0004905
-0.0004905
-0.0004905
-0.0004905
-0.0004905
-0.0004905
-0.0004905
-0.0004905
-0.0004905
-0.0004905
-0.0004905
-0.0004905
-0.0004905
-0.0004905
-0.0004905
-0.0004905
-0.0004905
-0.0004905
-0.0004905
-0.0004905
-0.0004905
-0.0004905
-0.0004905
-0.0004905
-0.0004905
-0.0004905
-0.0004905
-0.0004905
-0.0004905
-0.0004905
-0.0004905
-0.0004905
-0.0004905
-0.0004905
-0.0004905
-0.0004905
-0.0004905
-0.0004905
-0.0004905
-0.0004905
-0.0004905
-0.0004905
-0.0004905
-0.0004905
-0.0004905
-0.0004905
-0.0004905
-0.0004905
-0.0004905
-0.0004905
-0.0004905
-0.0004905
-0.0004905
-0.0004905
-0.0004905
-0.0004905
-0.0004905
-0.0004905
-0.0004905
-0.0004905
-0.0004905
-0.0004905
-0.0004905
-0.0004905
-0.0004905
-0.0004905
-0.0004905
-0.0004905
-0.0004905
-0.0004905
-0.0004905
-0.0004905
-0.0004905
-0.0004905
-0.0004905
-0.0004905
-0.0004905
-0.0004905
-0.0004905
-0.0004905
-0.0004905
-0.0004905
-0.0004905
-0.0004905
-0.0004905
-0.0004905
-0.0004905
-0.0004905
-0.0004905
-0.0004905
-0.0004905
-0.0004905
-0.0004905
-0.0004905
-0.0004905
-0.0004905
-0.0004905
-0.0004905
-0.0004905
-0.0004905
-0.0004905
-0.0004905
-0.0004905
-0.0004905
-0.0004905
-0.0004905
-0.0004905
-0.0004905
-0.0004905
-0.0004905
-0.0004905
-0.0004905
-0.0004905
-0.0004905
-0.0004905
-0.0004905
-0.0004905
-0.0004905
-0.0004905
-0.0004905
-0.0004905
-0.0004905
-0.0004905
-0.0004905
-0.0004905
-0.0004905
-0.0004905
-0.0004905
-0.0004905
-0.0004905
-0.0004905
-0.0004905
-0.0004905
-0.0004905
-0.0004905
-0.0004905
-0.0004905
-0.0004905
-0.0004905
-0.0004905
-0.0004905
-0.0004905
-0.0004905
-0.0004905
-0.0004905
-0.0004905
-0.0004905
-0.0004905
-0.0004905
-0.0004905
-0.0004905
-0.0004905
-0.0004905
-0.0004905
-0.0004905
-0.0004905
-0.0004905
-0.0004905
-0.0004905
-0.0004905
-0.0004905
-0.0004905
-0.0004905
-0.0004905
-0.0004905
-0.0004905
-0.0004905
-0.0004905
-0.0004905
-0.0004905
-0.0004905
-0.0004905
-0.0004905
-0.0004905
-0.0004905
)
;

boundaryField
{
    inflow
    {
        type            calculated;
        value           uniform 1.22625;
    }
    outflow
    {
        type            calculated;
        value           uniform -0.0004905;
    }
    sides
    {
        type            empty;
    }
    topAndBottom
    {
        type            empty;
    }
}


// ************************************************************************* //
