/*--------------------------------*- C++ -*----------------------------------*\
  =========                 |
  \\      /  F ield         | OpenFOAM: The Open Source CFD Toolbox
   \\    /   O peration     | Website:  https://openfoam.org
    \\  /    A nd           | Version:  13
     \\/     M anipulation  |
\*---------------------------------------------------------------------------*/
FoamFile
{
    format      ascii;
    class       volScalarField;
    location    "1";
    object      Q1;
}
// * * * * * * * * * * * * * * * * * * * * * * * * * * * * * * * * * * * * * //

dimensions      [];

internalField   nonuniform List<scalar> 
1600
(
0.5
0.5
0.5
0.5
0.5
0.5
0.5
0.5
0.5
0.5
0.5
0.5
0.5
0.5
0.5
0.5
0.5
0.5
0.5
0.5
0.5
0.5
0.5
0.5
0.5
0.5
0.5
0.5
0.5
0.5
0.5
0.5
0.5
0.5
0.5
0.5
0.5
0.5
0.5
0.5
0.5
0.5
0.5
0.5
0.5
0.5
0.5
0.5
0.5
0.5
0.5
0.5
0.5
0.5
0.5
0.5
0.5
0.5
0.5
0.5
0.5
0.5
0.5
0.5
0.5
0.5
0.5
0.5
0.5
0.5
0.5
0.5
0.5
0.5
0.5
0.5
0.5
0.5
0.5
0.5
0.5
0.5
0.5
0.5
0.5
0.5
0.5
0.5
0.5
0.5
0.5
0.5
0.5
0.5
0.5
0.5
0.5
0.5
0.5
0.5
0.5
0.5
0.5
0.5
0.5
0.5
0.5
0.5
0.5
0.5
0.5
0.5
0.5
0.5
0.5
0.5
0.5
0.5
0.5
0.5
0.5
0.5
0.5
0.5
0.5
0.5
0.5
0.5
0.5
0.5
0.5
0.5
0.5
0.5
0.5
0.5
0.5
0.5
0.5
0.5
0.5
0.5
0.5
0.5
0.5
0.5
0.5
0.5
0.5
0.5
0.5
0.5
0.5
0.5
0.5
0.5
0.5
0.5
0.5
0.5
0.5
0.5
0.5
0.5
0.5
0.5
0.5
0.5
0.5
0.5
0.5
0.5
0.5
0.5
0.5
0.5
0.5
0.5
0.5
0.5
0.5
0.5
0.5
0.5
0.5
0.5
0.5
0.5
0.5
0.5
0.5
0.5
0.5
0.5
0.5
0.5
0.5
0.5
0.5
0.5
0.5
0.5
0.5
0.5
0.5
0.5
0.5
0.5
0.5
0.5
0.5
0.5
0.5
0.5
0.5
0.5
0.5
0.5
0.5
0.5
0.5
0.5
0.5
0.5
0.5
0.5
0.5
0.5
0.5
0.5
0.5
0.5
0.5
0.5
0.5
0.5
0.5
0.5
0.5
0.5
0.5
0.5
0.5
0.5
0.5
0.5
0.5
0.5
0.5
0.5
0.5
0.5
0.5
0.5
0.5
0.5
0.5
0.5
0.5
0.5
0.5
0.5
0.5
0.5
0.5
0.5
0.5
0.5
0.5
0.5
0.5
0.5
0.5
0.5
0.5
0.5
0.5
0.5
0.5
0.5
0.5
0.5
0.5
0.5
0.5
0.5
0.5
0.5
0.5
0.5
0.5
0.5
0.5
0.5
0.5
0.5
0.5
0.5
0.5
0.5
0.5
0.5
0.5
0.5
0.5
0.5
0.5
0.5
0.5
0.5
0.5
0.5
0.5
0.5
0.5
0.5
0.5
0.5
0.5
0.5
0.5
0.5
0.5
0.5
0.5
0.5
0.5
0.5
0.5
0.5
0.5
0.5
0.5
0.5
0.5
0.5
0.5
0.5
0.5
0.5
0.5
0.5
0.5
0.5
0.5
0.5
0.5
0.5
0.5
0.5
0.5
0.5
0.5
0.5
0.5
0.5
0.5
0.5
0.5
0.5
0.5
0.5
0.5
0.5
0.5
0.5
0.5
0.5
0.5
0.5
0.5
0.5
0.5
0.5
0.5
0.5
0.5
0.5
0.5
0.5
0.5
0.5
0.5
0.5
0.5
0.5
0.5
0.5
0.5
0.5
0.5
0.5
0.5
0.5
0.5
0.5
0.5
0.5
0.5
0.5
0.5
0.5
0.5
0.5
0.5
0.5
0.5
0.5
0.5
0.5
0.5
0.5
0.5
0.5
0.5
0.5
0.5
0.5
0.5
0.5
0.5
0.5
0.5
0.5
0.5
0.5
0.5
0.5
0.5
0.5
0.5
0.5
0.5
0.5
0.5
0.5
0.5
0.5
0.5
0.5
0.5
0.5
0.5
0.499931021473
0.499442283373
0.498697446073
0.497858378186
0.496982878396
0.496092043824
0.495193858148
0.494291463302
0.493386333929
0.492479255022
0.491570737307
0.490661147088
0.489750765757
0.488839818553
0.48792848881
0.487016928191
0.486105263113
0.485193599995
0.484282029367
0.483370629022
0.482459466249
0.481548599386
0.480638079122
0.479727949767
0.478818250452
0.477909016062
0.477000277814
0.476092063592
0.475184398249
0.474277304011
0.473370800953
0.472464907406
0.471559640168
0.470655014578
0.46975104455
0.468847742716
0.467945120645
0.467043189063
0.466141957978
0.46524143668
0.464341633724
0.463442556954
0.462544213618
0.461646610502
0.460749754015
0.459853650193
0.458958304664
0.458063722632
0.457169908936
0.45627686813
0.45538460455
0.454493122328
0.453602425358
0.452712517276
0.451823401474
0.450935081156
0.450047559385
0.449160839104
0.448274923119
0.447389814069
0.446505514432
0.445622026547
0.444739352657
0.443857494929
0.442976455446
0.442096236185
0.441216839015
0.4403382657
0.439460517933
0.43858359735
0.43770750554
0.436832244023
0.435957814241
0.435084217562
0.434211455296
0.433339528713
0.432468439051
0.431598187505
0.43072877522
0.429860203279
0.428992472711
0.428125584507
0.42725953963
0.426394339024
0.425529983612
0.424666474286
0.423803811903
0.422941997284
0.422081031216
0.421220914455
0.420361647731
0.41950323175
0.418645667201
0.417788954756
0.416933095066
0.416078088766
0.415223936467
0.414370638757
0.413518196206
0.412666609366
0.411815878778
0.410966004968
0.410116988447
0.409268829708
0.408421529232
0.407575087482
0.406729504912
0.405884781965
0.405040919071
0.40419791665
0.403355775108
0.40251449484
0.40167407623
0.400834519655
0.399995825482
0.399157994069
0.398321025764
0.397484920906
0.396649679826
0.395815302844
0.394981790277
0.394149142434
0.393317359614
0.392486442112
0.391656390212
0.390827204195
0.389998884337
0.389171430907
0.388344844169
0.387519124377
0.386694271777
0.385870286606
0.385047169097
0.384224919477
0.383403537974
0.382583024816
0.381763380228
0.380944604434
0.380126697653
0.379309660093
0.378493491955
0.37767819343
0.376863764706
0.376050205966
0.375237517395
0.374425699175
0.373614751489
0.372804674515
0.371995468425
0.37118713339
0.370379669573
0.369573077135
0.368767356237
0.367962507036
0.367158529684
0.366355424334
0.365553191133
0.364751830226
0.363951341758
0.363151725868
0.362352982695
0.361555112375
0.360758115042
0.359961990827
0.359166739858
0.358372362262
0.357578858165
0.356786227689
0.355994470955
0.355203588083
0.354413579188
0.353624444386
0.352836183791
0.352048797514
0.351262285665
0.350476648352
0.349691885681
0.348907997758
0.348124984686
0.347342846567
0.346561583501
0.345781195587
0.345001682922
0.344223045603
0.343445283725
0.34266839738
0.34189238666
0.341117251658
0.340342992461
0.339569609159
0.338797101838
0.338025470585
0.337254715485
0.33648483662
0.335715834075
0.334947707929
0.334180458265
0.333414085161
0.332648588696
0.331883968947
0.331120225991
0.330357359904
0.32959537076
0.328834258634
0.328074023597
0.327314665722
0.326556185081
0.325798581744
0.325041855779
0.324286007257
0.323531036245
0.32277694281
0.322023727019
0.321271388939
0.320519928636
0.319769346174
0.319019641619
0.318270815035
0.317522866483
0.316775796023
0.316029603714
0.315284289614
0.314539853777
0.31379629626
0.313053617121
0.312311816419
0.311570894213
0.310830850566
0.310091685541
0.309353399197
0.308615991592
0.307879462783
0.307143812821
0.306409041757
0.30567514964
0.30494213652
0.304210002448
0.303478747475
0.302748371655
0.302018875039
0.30129025768
0.300562519631
0.299835660942
0.299109681661
0.298384581839
0.297660361523
0.296937020762
0.296214559603
0.295492978094
0.294772276282
0.294052454216
0.293333511943
0.292615449507
0.291898266957
0.291181964338
0.290466541694
0.289751999073
0.289038336519
0.288325554076
0.287613651789
0.286902629703
0.286192487861
0.285483226307
0.284774845086
0.284067344239
0.283360723812
0.282654983845
0.281950124382
0.281246145466
0.280543047139
0.279840829443
0.27913949242
0.278439036112
0.27773946056
0.277040765808
0.276342951897
0.275646018868
0.274949966765
0.274254795627
0.273560505497
0.272867096414
0.272174568417
0.271482921544
0.270792155834
0.270102271323
0.26941326805
0.268725146053
0.268037905373
0.267351546053
0.266666068135
0.265981471664
0.265297756684
0.264614923238
0.263932971368
0.263251901113
0.262571712512
0.261892405602
0.26121398042
0.260536437002
0.259859775386
0.259183995612
0.25850909772
0.257835081752
0.257161947749
0.256489695752
0.255818325804
0.255147837944
0.254478232213
0.253809508652
0.2531416673
0.252474708199
0.251808631387
0.251143436908
0.250479124801
0.249815695109
0.249153147874
0.248491483136
0.247830700939
0.247170801325
0.246511784335
0.245853650014
0.245196398402
0.244540029544
0.243884543484
0.243229940263
0.242576219928
0.241923382522
0.241271428089
0.240620356675
0.239970168325
0.239320863085
0.238672441
0.238024902117
0.237378246483
0.236732474146
0.236087585152
0.23544357955
0.234800457389
0.234158218718
0.233516863586
0.232876392044
0.232236804142
0.231598099931
0.230960279464
0.230323342793
0.229687289971
0.229052121052
0.22841783609
0.227784435141
0.227151918259
0.226520285503
0.225889536928
0.225259672594
0.22463069256
0.224002596884
0.223375385628
0.222749058854
0.222123616623
0.221499059
0.22087538605
0.220252597836
0.219630694427
0.21900967589
0.218389542293
0.217770293706
0.217151930201
0.216534451851
0.215917858727
0.215302150907
0.214687328465
0.214073391479
0.213460340029
0.212848174194
0.212236894058
0.211626499703
0.211016991214
0.210408368679
0.209800632185
0.209193781822
0.208587817683
0.207982739861
0.207378548451
0.206775243551
0.20617282526
0.205571293679
0.204970648912
0.204370891064
0.203772020244
0.203174036561
0.202576940128
0.201980731059
0.201385409472
0.200790975484
0.200197429218
0.199604770795
0.199013000341
0.198422117981
0.197832123846
0.197243018067
0.196654800778
0.196067472119
0.195481032231
0.19489548126
0.194310819357
0.193727046676
0.193144163376
0.192562169617
0.191981065562
0.191400851378
0.190821527234
0.190243093298
0.189665549743
0.189088896744
0.18851313448
0.187938263131
0.187364282886
0.186791193934
0.186218996473
0.185647690701
0.185077276825
0.184507755055
0.183939125602
0.183371388686
0.182804544526
0.182238593349
0.181673535383
0.181109370862
0.180546100025
0.179983723115
0.17942224038
0.178861652073
0.178301958454
0.177743159788
0.177185256343
0.176628248395
0.176072136226
0.175516920122
0.174962600376
0.174409177287
0.173856651162
0.173305022312
0.172754291056
0.172204457722
0.171655522642
0.171107486159
0.170560348621
0.170014110386
0.169468771821
0.1689243333
0.168380795208
0.167838157938
0.167296421893
0.166755587489
0.166215655149
0.16567662531
0.165138498419
0.164601274938
0.164064955338
0.163529540107
0.162995029743
0.162461424763
0.161928725696
0.161396933089
0.160866047504
0.160336069522
0.15980699974
0.159278838777
0.15875158727
0.158225245875
0.157699815273
0.157175296165
0.156651689274
0.156128995349
0.155607215164
0.155086349519
0.15456639924
0.154047365184
0.153529248237
0.153012049319
0.152495769381
0.15198040941
0.151465970431
0.150952453505
0.150439859732
0.149928190252
0.149417446249
0.148907628945
0.14839873961
0.147890779555
0.14738375014
0.146877652774
0.146372488914
0.145868260073
0.145364967817
0.144862613769
0.144361199615
0.143860727099
0.143361198032
0.142862614289
0.142364977813
0.141868290618
0.141372554789
0.140877772485
0.140383945941
0.139891077469
0.139399169464
0.138908224403
0.13841824485
0.137929233457
0.13744119297
0.136954126225
0.13646803616
0.135982925809
0.135498798311
0.13501565691
0.134533504959
0.13405234592
0.133572183372
0.13309302101
0.132614862653
0.132137712239
0.13166157384
0.131186451656
0.130712350022
0.130239273414
0.129767226452
0.129296213904
0.12882624069
0.12835731189
0.127889432748
0.127422608681
0.126956845282
0.126492148331
0.126028523805
0.125565977883
0.125104516962
0.124644147663
0.124184876846
0.123726711621
0.123269659354
0.122813727677
0.122358924485
0.121905257926
0.121452736369
0.121001368346
0.120551162455
0.120102127181
0.119654270636
0.119207600121
0.118762121463
0.118317838008
0.117874749089
0.117432847777
0.116992117596
0.11655252781
0.116114026817
0.115676533101
0.115239923331
0.114804017586
0.11436856281
0.113933217935
0.113497548515
0.113061046463
0.112623202954
0.112183681168
0.11174266038
0.111301455214
0.110863532793
0.110436013952
0.110031871134
0.109672640044
0.109388667661
0.109226466752
0.109197716517
0.109212205757
0.109294300009
0.10949761797
0.109815931951
0.110221368127
0.110665807234
0.111085291551
0.111411447803
0.111579966276
0.111597505345
0.111587724971
0.111547032466
0.1114695192
0.111363976819
0.11124203018
0.11111772429
0.11100667832
0.110925015704
0.110886483219
0.110884569635
0.110889381975
0.110908843152
0.110946782964
0.11100125136
0.111068650369
0.111143613587
0.111219395894
0.111288225605
0.111342052384
0.11137182176
0.111376770493
0.111375646696
0.111369618485
0.111355300983
0.111333018405
0.111303819747
0.11126939379
0.111232025133
0.111194513834
0.111160082638
0.11113221225
0.111115309591
0.111110912962
0.111111308327
0.111114020694
0.111121644201
0.111134450698
0.111152022768
0.111173453448
0.111197386667
0.111222055435
0.111245361324
0.111264911448
0.111277941486
0.111282749391
0.111282633359
0.111281338226
0.111277050178
0.111269248108
0.111258095454
0.111244069951
0.111227943324
0.111210764933
0.111193844285
0.111178775838
0.111167250191
0.11116119046
0.111160575719
0.11116108842
0.111163671267
0.111169605108
0.111178841461
0.111191059872
0.111205620431
0.111221564114
0.111237627709
0.111252335652
0.111263985053
0.111270471267
0.111271808966
0.111271485698
0.111269591398
0.111264746174
0.111256877769
0.111246221803
0.111233267496
0.111218759906
0.111203688156
0.111189262335
0.111176909284
0.111168354635
0.111164661527
0.111164610225
0.111165422093
0.111168555621
0.111174708107
0.111183809249
0.111195561136
0.111209388699
0.111224450382
0.111239663504
0.111253689845
0.11126507579
0.111272163602
0.111273742217
0.111273534055
0.111272069878
0.111267883618
0.111260761867
0.111250842533
0.111238514827
0.111224421767
0.111209452372
0.111194715613
0.111181621396
0.111171531379
0.111166056605
0.111165467161
0.111165844558
0.111167836258
0.11117256514
0.11118004954
0.111190102959
0.111202311592
0.11121602956
0.111230410352
0.111244439892
0.111256708669
0.111266127762
0.111271218185
0.111271414853
0.111270982692
0.111268854944
0.111263997049
0.111256390938
0.111246222047
0.111233928751
0.111220210017
0.111205975684
0.111192373755
0.11118090246
0.111172326634
0.111169868069
0.111170058892
0.111171014551
0.111174175124
0.111179946013
0.111188243048
0.111198767326
0.111210984684
0.111224159301
0.111237369406
0.111249562522
0.111259549512
0.11126628192
0.111267526561
0.111267391551
0.111266306952
0.111262870255
0.11125673481
0.111248022007
0.111237121912
0.111224654106
0.111211438027
0.111198453357
0.111186793834
0.111177600133
0.111172036673
0.111171691277
0.111171951296
0.111173629539
0.111178201626
0.111185783503
0.111196074432
0.111208424282
0.111221911651
0.111235484353
0.11124810667
0.111258815155
0.11126673655
0.111270763387
0.11127076844
0.111270358816
0.111268161923
0.11126269881
0.11125379078
0.111241434232
0.111226820233
0.111214533205
0.111204698127
0.111168086879
0.110997582787
0.109830441536
0.101650499223
0.0594513342131
0.0143620089392
0.01
0.01
0.01
0.01
0.01
0.01
0.01
0.01
0.01
0.01
0.01
0.01
0.01
0.01
0.01
0.01
0.01
0.01
0.01
0.01
0.01
0.01
0.01
0.01
0.01
0.01
0.01
0.01
0.01
0.01
0.01
0.01
0.01
0.01
0.01
0.01
0.01
0.01
0.01
0.01
0.01
0.01
0.01
0.01
0.01
0.01
0.01
0.01
0.01
0.01
0.01
0.01
0.01
0.01
0.01
0.01
0.01
0.01
0.01
0.01
0.01
0.01
0.01
0.01
0.01
0.01
0.01
0.01
0.01
0.01
0.01
0.01
0.01
0.01
0.01
0.01
0.01
0.01
0.01
0.01
0.01
0.01
0.01
0.01
0.01
0.01
0.01
0.01
0.01
0.01
0.01
0.01
0.01
0.01
0.01
0.01
0.01
0.01
0.01
0.01
0.01
0.01
0.01
0.01
0.01
0.01
0.01
0.01
0.01
0.01
0.01
0.01
0.01
0.01
0.01
0.01
0.01
0.01
0.01
0.01
0.01
0.01
0.01
0.01
0.01
0.01
0.01
0.01
0.01
0.01
0.01
0.01
0.01
0.01
0.01
0.01
0.01
0.01
0.01
0.01
0.01
0.01
0.01
0.01
0.01
0.01
0.01
0.01
0.01
0.01
0.01
0.01
0.01
0.01
0.01
0.01
0.01
0.01
0.01
0.01
0.01
0.01
0.01
0.01
0.01
0.01
0.01
0.01
0.01
0.01
0.01
0.01
0.01
0.01
0.01
0.01
0.01
0.01
0.01
0.01
0.01
0.01
0.01
0.01
0.01
0.01
0.01
0.01
0.01
0.01
0.01
0.01
0.01
0.01
0.01
0.01
0.01
0.01
0.01
0.01
0.01
0.01
0.01
0.01
0.01
0.01
0.01
0.01
0.01
0.01
0.01
0.01
0.01
0.01
0.01
0.01
0.01
0.01
0.01
0.01
0.01
0.01
0.01
0.01
0.01
0.01
0.01
0.01
0.01
0.01
0.01
0.01
0.01
0.01
0.01
0.01
0.01
0.01
0.01
0.01
0.01
0.01
0.01
0.01
0.01
0.01
0.01
0.01
0.01
0.01
0.01
0.01
0.01
0.01
0.01
0.01
0.01
0.01
0.01
0.01
0.01
0.01
0.01
0.01
0.01
0.01
0.01
0.01
0.01
0.01
0.01
0.01
0.01
0.01
0.01
0.01
0.01
0.01
0.01
0.01
0.01
0.01
0.01
0.01
0.01
0.01
0.01
0.01
0.01
0.01
0.01
0.01
0.01
0.01
0.01
0.01
0.01
0.01
0.01
0.01
0.01
0.01
0.01
0.01
0.01
0.01
0.01
0.01
0.01
0.01
0.01
0.01
0.01
0.01
0.01
0.01
0.01
0.01
0.01
0.01
0.01
0.01
0.01
0.01
0.01
0.01
0.01
0.01
0.01
0.01
0.01
0.01
0.01
0.01
0.01
0.01
0.01
0.01
0.01
0.01
0.01
0.01
0.01
0.01
0.01
0.01
0.01
0.01
0.01
0.01
0.01
0.01
0.01
0.01
0.01
0.01
0.01
0.01
0.01
0.01
0.01
0.01
0.01
0.01
0.01
0.01
0.01
0.01
0.01
0.01
0.01
0.01
0.01
0.01
0.01
0.01
0.01
0.01
0.01
0.01
0.01
0.01
0.01
0.01
0.01
0.01
0.01
)
;

boundaryField
{
    inflow
    {
        type            zeroGradient;
    }
    outflow
    {
        type            zeroGradient;
    }
    sides
    {
        type            empty;
    }
    topAndBottom
    {
        type            empty;
    }
}


// ************************************************************************* //
