/*--------------------------------*- C++ -*----------------------------------*\
  =========                 |
  \\      /  F ield         | OpenFOAM: The Open Source CFD Toolbox
   \\    /   O peration     | Website:  https://openfoam.org
    \\  /    A nd           | Version:  13
     \\/     M anipulation  |
\*---------------------------------------------------------------------------*/
FoamFile
{
    format      ascii;
    class       volScalarField;
    location    "1";
    object      Q2;
}
// * * * * * * * * * * * * * * * * * * * * * * * * * * * * * * * * * * * * * //

dimensions      [];

internalField   nonuniform List<scalar> 
1600
(
0
0
0
0
0
0
0
0
0
0
0
0
0
0
0
0
0
0
0
0
0
0
0
0
0
0
0
0
0
0
0
0
0
0
0
0
0
0
0
0
0
0
0
0
0
0
0
0
0
0
0
0
0
0
0
0
0
0
0
0
0
0
0
0
0
0
0
0
0
0
0
0
0
0
0
0
0
0
0
0
0
0
0
0
0
0
0
0
0
0
0
0
0
0
0
0
0
0
0
0
0
0
0
0
0
0
0
0
0
0
0
0
0
0
0
0
0
0
0
0
0
0
0
0
0
0
0
0
0
0
0
0
0
0
0
0
0
0
0
0
0
0
0
0
0
0
0
0
0
0
0
0
0
0
0
0
0
0
0
0
0
0
0
0
0
0
0
0
0
0
0
0
0
0
0
0
0
0
0
0
0
0
0
0
0
0
0
0
0
0
0
0
0
0
0
0
0
0
0
0
0
0
0
0
0
0
0
0
0
0
0
0
0
0
0
0
0
0
0
0
0
0
0
0
0
0
0
0
0
0
0
0
0
0
0
0
0
0
0
0
0
0
0
0
0
0
0
0
0
0
0
0
0
0
0
0
0
0
0
0
0
0
0
0
0
0
0
0
0
0
0
0
0
0
0
0
0
0
0
0
0
0
0
0
0
0
0
0
0
0
0
0
0
0
0
0
0
0
0
0
0
0
0
0
0
0
0
0
0
0
0
0
0
0
0
0
0
0
0
0
0
0
0
0
0
0
0
0
0
0
0
0
0
0
0
0
0
0
0
0
0
0
0
0
0
0
0
0
0
0
0
0
0
0
0
0
0
0
0
0
0
0
0
0
0
0
0
0
0
0
0
0
0
0
0
0
0
0
0
0
0
0
0
0
0
0
0
0
0
0
0
0
0
0
0
0
0
0
0
0
0
0
0
0
0
0
0
0
0
0
0
0
0
0
0
0
0
0
0
0
0
0
0
0
0
0
0
0
0
0
0
0
0
0
0
0
0
0
0
0
0
0
0
0.000152737171019
0.00123408483503
0.00287910597407
0.0047278146731
0.00665179711414
0.00860422798869
0.0105674050272
0.0125343566315
0.014501801819
0.0164679877895
0.0184317720179
0.0203923337278
0.0223490431403
0.0243013986837
0.02624899467
0.0281914970091
0.0301286276863
0.0320601532247
0.0339858766412
0.0359056311651
0.0378192747487
0.0397266852907
0.0416277569287
0.0435223975717
0.0454105272707
0.0472920767864
0.0491669859833
0.0510352021654
0.0528966787389
0.0547513744354
0.0565992529629
0.0584402827045
0.0602744361839
0.0621016893297
0.0639220208114
0.065735411684
0.0675418453297
0.0693413074642
0.0711337859763
0.0729192705671
0.0746977523566
0.0764692236578
0.0782336779686
0.0799911100521
0.0817415159242
0.0834848926793
0.0852212382413
0.086950551192
0.0886728307546
0.0903880768722
0.0920962902523
0.093797472296
0.095491624941
0.0971787505266
0.0988588517588
0.100531931765
0.102197994154
0.103857043
0.105509082754
0.107154118137
0.108792154094
0.110423195823
0.112047248826
0.113664318929
0.115274412231
0.116877535031
0.118473693776
0.120062895071
0.121645145714
0.123220452725
0.124788823331
0.126350264913
0.127904784962
0.129452391071
0.130993090955
0.132526892487
0.134053803697
0.135573832746
0.13708698788
0.138593277405
0.140092709691
0.141585293196
0.143071036493
0.144549948274
0.146022037335
0.147487312553
0.148945782867
0.150397457266
0.15184234479
0.153280454531
0.154711795639
0.156136377322
0.157554208856
0.158965299582
0.160369658899
0.161767296254
0.163158221135
0.164542443067
0.165919971612
0.167290816376
0.168654987013
0.170012493221
0.171363344732
0.172707551312
0.174045122755
0.175376068886
0.176700399567
0.178018124694
0.179329254194
0.180633798022
0.181931766154
0.183223168594
0.184508015368
0.185786316534
0.187058082174
0.188323322394
0.18958204732
0.190834267097
0.192079991889
0.193319231884
0.19455199729
0.195778298336
0.196998145269
0.198211548349
0.199418517856
0.200619064089
0.201813197365
0.203000928019
0.204182266401
0.205357222868
0.206525807783
0.207688031518
0.208843904455
0.209993436995
0.211136639558
0.212273522594
0.213404096572
0.214528371977
0.215646359303
0.216758069042
0.217863511688
0.218962697732
0.220055637675
0.221142342029
0.222222821325
0.223297086111
0.224365146948
0.225427014407
0.226482699064
0.227532211499
0.2285755623
0.22961276206
0.230643821385
0.231668750887
0.232687561188
0.233700262914
0.234706866701
0.235707383188
0.236701823024
0.237690196865
0.238672515373
0.239648789216
0.240619029067
0.241583245606
0.242541449519
0.243493651496
0.244439862236
0.245380092443
0.246314352825
0.247242654095
0.248165006971
0.249081422177
0.249991910441
0.250896482498
0.251795149086
0.252687920949
0.253574808833
0.254455823489
0.255330975675
0.256200276151
0.257063735681
0.257921365036
0.258773174987
0.259619176312
0.260459379791
0.261293796208
0.262122436351
0.262945311013
0.263762430989
0.264573807078
0.265379450082
0.266179370807
0.266973580061
0.267762088658
0.268544907412
0.269322047142
0.270093518671
0.270859332822
0.271619500423
0.272374032305
0.273122939301
0.273866232248
0.274603921985
0.275336019354
0.276062535198
0.276783480366
0.277498865706
0.278208702071
0.278913000316
0.279611771297
0.280305025875
0.280992774912
0.281675029272
0.282351799824
0.28302309744
0.283688932994
0.284349317362
0.285004261421
0.285653776047
0.286297872117
0.286936560506
0.287569852088
0.288197757739
0.288820288339
0.289437454774
0.290049267938
0.290655738733
0.291256878068
0.291852696855
0.292443206005
0.293028416428
0.293608339027
0.294182984703
0.294752364351
0.295316488868
0.295875369157
0.296429016122
0.296977440676
0.297520653737
0.298058666224
0.298591489062
0.299119133171
0.299641609475
0.300158928896
0.300671102356
0.30117814078
0.301680055092
0.302176856222
0.302668555098
0.303155162653
0.303636689819
0.304113147531
0.304584546724
0.305050898335
0.305512213302
0.305968502565
0.306419777064
0.306866047741
0.30730732554
0.307743621405
0.308174946282
0.308601311119
0.309022726863
0.309439204464
0.309850754874
0.310257389044
0.310659117927
0.311055952478
0.311447903652
0.311834982406
0.312217199698
0.312594566487
0.312967093734
0.3133347924
0.31369767345
0.31405574785
0.314409026564
0.314757520563
0.315101240813
0.315440198283
0.315774403941
0.316103868751
0.316428603678
0.316748619688
0.317063927745
0.317374538817
0.317680463875
0.317981713897
0.318278299866
0.31857023277
0.3188575236
0.319140183348
0.319418223004
0.319691653557
0.319960485989
0.320224731279
0.320484400406
0.320739504345
0.320990054077
0.321236060584
0.321477534853
0.321714487875
0.321946930645
0.322174874161
0.322398329418
0.322617307413
0.322831819144
0.323041875606
0.323247487794
0.323448666705
0.323645423338
0.323837768691
0.324025713765
0.324209269562
0.324388447087
0.324563257342
0.324733711334
0.324899820069
0.325061594553
0.325219045795
0.325372184804
0.325521022589
0.325665570161
0.325805838532
0.325941838716
0.326073581726
0.326201078578
0.326324340288
0.326443377873
0.326558202351
0.326668824741
0.326775256065
0.326877507344
0.3269755896
0.327069513856
0.327159291139
0.327244932473
0.327326448886
0.327403851406
0.327477151063
0.327546358887
0.327611485909
0.327672543164
0.327729541685
0.327782492507
0.327831406668
0.327876295206
0.327917169159
0.327954039569
0.327986917477
0.328015813926
0.328040739963
0.328061706631
0.32807872498
0.328091806058
0.328100960916
0.328106200605
0.32810753618
0.328104978694
0.328098539206
0.328088228773
0.328074058455
0.328056039314
0.328034182414
0.328008498819
0.327978999596
0.327945695815
0.327908598545
0.32786771886
0.327823067835
0.327774656545
0.327722496069
0.327666597488
0.327606971886
0.327543630347
0.327476583958
0.32740584381
0.327331420993
0.327253326604
0.327171571738
0.327086167495
0.326997124977
0.32690445529
0.32680816954
0.326708278839
0.3266047943
0.32649772704
0.326387088181
0.326272888846
0.326155140162
0.32603385326
0.325909039272
0.325780709335
0.325648874587
0.325513546166
0.325374735215
0.325232452878
0.325086710301
0.324937518635
0.324784889037
0.324628832668
0.324469360697
0.324306484303
0.324140214669
0.323970562989
0.323797540463
0.323621158293
0.323441427688
0.323258359856
0.323071966009
0.322882257357
0.322689245115
0.322492940498
0.322293354729
0.322090499035
0.32188438465
0.321675022821
0.3214624248
0.321246601851
0.321027565243
0.320805326255
0.320579896171
0.320351286283
0.320119507886
0.319884572282
0.319646490781
0.319405274696
0.319160935353
0.318913484082
0.318662932225
0.318409291129
0.318152572156
0.317892786672
0.317629946054
0.31736406169
0.317095144974
0.316823207314
0.316548260124
0.31627031483
0.31598938287
0.315705475691
0.315418604752
0.315128781525
0.314836017492
0.314540324149
0.314241713005
0.313940195581
0.313635783412
0.313328488048
0.313018321052
0.312705294005
0.3123894185
0.312070706148
0.311749168576
0.311424817431
0.311097664374
0.310767721087
0.310434999271
0.310099510648
0.309761266959
0.309420279969
0.309076561464
0.308730123255
0.308380977178
0.308029135094
0.307674608891
0.307317410485
0.306957551821
0.306595044873
0.306229901646
0.305862134177
0.305491754536
0.305118774825
0.304743207185
0.304365063791
0.30398435686
0.303601098648
0.30321530146
0.302826977643
0.302436139599
0.30204279978
0.301646970693
0.301248664905
0.300847895038
0.300444673775
0.300039013862
0.299630928103
0.299220429368
0.298807530593
0.298392244778
0.297974584999
0.297554564403
0.297132196218
0.296707493757
0.29628047042
0.295851139701
0.295419515191
0.294985610583
0.294549439673
0.294111016366
0.293670354675
0.293227468728
0.29278237277
0.292335081169
0.291885608415
0.291433969132
0.290980178076
0.290524250148
0.290066200393
0.28960604401
0.289143796353
0.288679472942
0.288213089466
0.287744661784
0.287274205941
0.286801738164
0.286327274874
0.28585083269
0.285372428435
0.284892079148
0.284409802083
0.283925614723
0.283439534786
0.28295158023
0.282461769267
0.281970120365
0.281476652262
0.280981383975
0.280484334807
0.279985524362
0.279484972555
0.278982699627
0.278478726154
0.277973073069
0.277465761673
0.276956813654
0.276446251107
0.275934096554
0.27542037296
0.274905103754
0.274388312845
0.273870024624
0.273350263961
0.27282905618
0.272306426993
0.271782402391
0.271257008444
0.270730270977
0.27020221505
0.269672864144
0.269142238898
0.268610355207
0.268077221371
0.267542833911
0.267007171535
0.26647018659
0.265931793283
0.26539185202
0.264850149742
0.26430637751
0.263760109559
0.263210793823
0.262657774066
0.262100380512
0.261538151062
0.260971279639
0.260401433432
0.259833111401
0.259275671954
0.258746319111
0.258273835467
0.257899008895
0.257684302829
0.257646220843
0.257665411347
0.257774070538
0.258042786312
0.25846231789
0.258994589491
0.259575363844
0.260120936311
0.260543348706
0.260760888081
0.260783503716
0.260770881938
0.260718350617
0.26061822453
0.260481757193
0.260323882822
0.260162735936
0.260018591901
0.259912474106
0.259862362177
0.259859872378
0.259866130847
0.259891436623
0.259940756489
0.260011527811
0.260099042664
0.260196304584
0.260294548219
0.26038371007
0.260453390226
0.260491904716
0.260498307198
0.260496853494
0.260489055262
0.26047053199
0.260441698465
0.260403905292
0.260359331016
0.260310927842
0.260262319735
0.260217685553
0.260181544287
0.26015962734
0.260153911146
0.260154424056
0.260157942648
0.260167832522
0.260184446277
0.260207240647
0.260235036082
0.260266069728
0.260298051478
0.260328257066
0.260353573261
0.260370524229
0.260376713796
0.260376552972
0.260374869066
0.26036930783
0.260359189935
0.260344732819
0.260326556785
0.260305660519
0.260283403282
0.260261475293
0.260241976837
0.260227010428
0.260219083399
0.260218457081
0.260219127382
0.260222498492
0.260230206936
0.260242183626
0.260258018477
0.26027688217
0.260297531117
0.26031830598
0.260337376266
0.260352432603
0.26036052878
0.260362468241
0.260362054885
0.26035963421
0.260353412184
0.260343269432
0.260329509879
0.260312766664
0.260294000609
0.260274485731
0.260255794539
0.260239762136
0.260228749431
0.260223813323
0.260223680241
0.260224702466
0.260228755626
0.260236749654
0.260248571535
0.260263840776
0.260281808328
0.260301372641
0.26032114296
0.26033933209
0.26035407601
0.260363656875
0.260365329799
0.260365057379
0.2603631391
0.260357670097
0.260348403957
0.260335527751
0.260319536415
0.260301264029
0.260281862914
0.260262741847
0.260245851105
0.260232720689
0.260225359353
0.260224836832
0.260225337843
0.260227974328
0.260234176889
0.260243957223
0.260257081588
0.260273008365
0.260290879922
0.260309594261
0.260327889809
0.260343621356
0.260356101451
0.260363370809
0.260362748082
0.260362123419
0.260359132374
0.260352593882
0.26034254591
0.2603292173
0.260313184567
0.260295374565
0.260276927303
0.260259353978
0.260244939676
0.260232558918
0.260230609782
0.26023162008
0.260233162659
0.260237717525
0.260245435524
0.260256276515
0.260269900606
0.260285637694
0.26030254506
0.260319416875
0.260334902724
0.26034739402
0.260356544362
0.26035647957
0.260356172264
0.260354693767
0.26035021936
0.260342298119
0.260331093041
0.260317112909
0.260301152759
0.260284286173
0.260267809606
0.260253144705
0.260241727714
0.260234409613
0.260235773957
0.26023614103
0.260238370288
0.260244336218
0.260254110903
0.260267320108
0.260283153393
0.260300417743
0.260317719312
0.260333683436
0.260347070475
0.260356877381
0.26036158666
0.260360366833
0.260359779171
0.260356806424
0.260349809699
0.260338479298
0.26032193404
0.260302202098
0.260292381928
0.260290205729
0.260205691742
0.259692199281
0.25577531771
0.22681604322
0.100210466567
0.00553895315144
-3.1940444908e-21
0
0
0
0
0
0
0
0
0
0
0
0
0
0
0
0
0
0
0
0
0
0
0
0
0
0
0
0
0
0
0
0
0
0
0
0
0
0
0
0
0
0
0
0
0
0
0
0
0
0
0
0
0
0
0
0
0
0
0
0
0
0
0
0
0
0
0
0
0
0
0
0
0
0
0
0
0
0
0
0
0
0
0
0
0
0
0
0
0
0
0
0
0
0
0
0
0
0
0
0
0
0
0
0
0
0
0
0
0
0
0
0
0
0
0
0
0
0
0
0
0
0
0
0
0
0
0
0
0
0
0
0
0
0
0
0
0
0
0
0
0
0
0
0
0
0
0
0
0
0
0
0
0
0
0
0
0
0
0
0
0
0
0
0
0
0
0
0
0
0
0
0
0
0
0
0
0
0
0
0
0
0
0
0
0
0
0
0
0
0
0
0
0
0
0
0
0
0
0
0
0
0
0
0
0
0
0
0
0
0
0
0
0
0
0
0
0
0
0
0
0
0
0
0
0
0
0
0
0
0
0
0
0
0
0
0
0
0
0
0
0
0
0
0
0
0
0
0
0
0
0
0
0
0
0
0
0
0
0
0
0
0
0
0
0
0
0
0
0
0
0
0
0
0
0
0
0
0
0
0
0
0
0
0
0
0
0
0
0
0
0
0
0
0
0
0
0
0
0
0
0
0
0
0
0
0
0
0
0
0
0
0
0
0
0
0
0
0
0
0
0
0
0
0
0
0
0
0
0
0
0
0
0
0
0
0
0
0
0
0
0
0
0
0
0
0
0
0
0
0
0
0
0
0
0
0
0
0
0
0
0
0
0
0
0
0
0
0
0
0
0
0
0
0
0
0
0
0
0
0
0
0
0
0
0
0
)
;

boundaryField
{
    inflow
    {
        type            zeroGradient;
    }
    outflow
    {
        type            zeroGradient;
    }
    sides
    {
        type            empty;
    }
    topAndBottom
    {
        type            empty;
    }
}


// ************************************************************************* //
