/*--------------------------------*- C++ -*----------------------------------*\
  =========                 |
  \\      /  F ield         | OpenFOAM: The Open Source CFD Toolbox
   \\    /   O peration     | Website:  https://openfoam.org
    \\  /    A nd           | Version:  13
     \\/     M anipulation  |
\*---------------------------------------------------------------------------*/
FoamFile
{
    format      ascii;
    class       surfaceScalarField;
    location    "1";
    object      Dm2;
}
// * * * * * * * * * * * * * * * * * * * * * * * * * * * * * * * * * * * * * //

dimensions      [0 3 -1 0 0 0 0];

internalField   nonuniform List<scalar> 
199
(
1.22625
1.22625
1.22625
1.22625
1.22625
1.22625
1.22625
1.22625
1.22625
1.22625
1.22625
1.22625
1.22625
1.22625
1.22625
1.22625
1.22625
1.22625
1.22625
1.22625
1.22625
1.22625
1.22625
1.22625
1.22625
1.22625
1.22625
1.22625
1.22625
1.22625
1.22625
1.22625
1.22625
1.22625
1.22625
1.22625
1.22625
1.22625
1.22625
1.22625
1.22625
1.22625
1.22625
1.22625
1.22625
1.22625
1.22625
1.22625
1.22625
1.22625
1.22625
1.22625
1.22625
1.22425090512
1.20432503361
1.17701645431
1.14788626344
1.11892609976
1.09083739109
1.06388626251
1.03817745314
1.01375004615
0.990611080124
0.968749908402
0.948145267292
0.928768843779
0.910587534459
0.893565050864
0.877663074646
0.862842026943
0.849061513526
0.83628057004
0.824457874048
0.813552005008
0.803521695002
0.794325977191
0.785924221886
0.778276139606
0.771341834512
0.765081919066
0.759457628342
0.754430866218
0.749964175135
0.746020686002
0.742564114883
0.739558824009
0.736969905949
0.734763233698
0.732905454049
0.731363950169
0.730106818586
0.729102884184
0.728321739169
0.727733773145
0.727310174678
0.727022913922
0.726844732875
0.726749161122
0.726710550585
0.726704105792
0.726705890599
0.72669281291
0.726642607307
0.726533837161
0.726345923082
0.726059187201
0.725654896449
0.72511529612
0.724423638884
0.72356422258
0.722522447441
0.721284894823
0.719839424371
0.718175290703
0.716283292351
0.714155977861
0.711787940639
0.709176233186
0.706320921395
0.703225786859
0.699899165637
0.696354919598
0.692613661944
0.688704517216
0.684668706394
0.680564881996
0.676480087001
0.672563837905
0.668997227718
0.666104773716
0.664738877969
0.664267794015
0.664223783993
0.664393170722
0.665064388713
0.66602767642
0.667232183775
0.668540065305
0.669784427113
0.670882344995
0.671418907656
0.671916111323
0.67201627883
0.67208252895
0.672019190875
0.671769807854
0.671879921791
0.67213113057
0.6674391189
0.639643234438
0.464614752357
0.0530977897142
0.0004905
0.0004905
0.0004905
0.0004905
0.0004905
0.0004905
0.0004905
0.0004905
0.0004905
0.0004905
0.0004905
0.0004905
0.0004905
0.0004905
0.0004905
0.0004905
0.0004905
0.0004905
0.0004905
0.0004905
0.0004905
0.0004905
0.0004905
0.0004905
0.0004905
0.0004905
0.0004905
0.0004905
0.0004905
0.0004905
0.0004905
0.0004905
0.0004905
0.0004905
0.0004905
0.0004905
0.0004905
0.0004905
0.0004905
0.0004905
0.0004905
0.0004905
0.0004905
0.0004905
0.0004905
0.0004905
0.0004905
)
;

boundaryField
{
    inflow
    {
        type            calculated;
        value           uniform -1.22625;
    }
    outflow
    {
        type            calculated;
        value           uniform 0.0004905;
    }
    sides
    {
        type            empty;
    }
    topAndBottom
    {
        type            empty;
    }
}


// ************************************************************************* //
