/*--------------------------------*- C++ -*----------------------------------*\
  =========                 |
  \\      /  F ield         | OpenFOAM: The Open Source CFD Toolbox
   \\    /   O peration     | Website:  https://openfoam.org
    \\  /    A nd           | Version:  13
     \\/     M anipulation  |
\*---------------------------------------------------------------------------*/
FoamFile
{
    format      ascii;
    class       surfaceScalarField;
    location    "1";
    object      Dp1;
}
// * * * * * * * * * * * * * * * * * * * * * * * * * * * * * * * * * * * * * //

dimensions      [0 3 -1 0 0 0 0];

internalField   nonuniform List<scalar> 
199
(
0
0
0
0
0
0
0
0
0
0
0
0
0
0
0
0
0
0
0
0
0
0
0
0
0
0
0
0
0
0
0
0
0
0
0
0
0
0
0
0
0
0
0
0
0
0
0
0
0
0
0
0
0
-0.000903183098353
-0.00996693102498
-0.0225729525173
-0.036285971343
-0.0502115809578
-0.0640235325578
-0.0775881501682
-0.090842305292
-0.103751987492
-0.116297219869
-0.128465893651
-0.140250753212
-0.151647681494
-0.162654673327
-0.173271261116
-0.183498159267
-0.193337005018
-0.202790133402
-0.211860382476
-0.220550962691
-0.228865399243
-0.236807507899
-0.244381356929
-0.251591205271
-0.258441444039
-0.264936570098
-0.271081192155
-0.276880042811
-0.28233796936
-0.287459900075
-0.292250807307
-0.29671569168
-0.300859592567
-0.304687608319
-0.308204904732
-0.311416703797
-0.314328262696
-0.316944859494
-0.319271793578
-0.321314395227
-0.323078032325
-0.324568107458
-0.32579004908
-0.326749306192
-0.327451352582
-0.327901698127
-0.328105898987
-0.328069560435
-0.327798333309
-0.327297911197
-0.326574035754
-0.325632512337
-0.324479232268
-0.32312019599
-0.321561534161
-0.319809528274
-0.31787063518
-0.315751519422
-0.313459095487
-0.31100058178
-0.308383571052
-0.305616127068
-0.302706922118
-0.29966543214
-0.296502203719
-0.293229197779
-0.289860199983
-0.286411274209
-0.282901253633
-0.279352366842
-0.275791280692
-0.272251359483
-0.26877662877
-0.265429317548
-0.262308671959
-0.259550495291
-0.257360558995
-0.256202485767
-0.255949482692
-0.255941995465
-0.256105303672
-0.25659991931
-0.257334585722
-0.258256653883
-0.259257775472
-0.260211810667
-0.261022515076
-0.261492432568
-0.261747563666
-0.261787256457
-0.261777032202
-0.26166762759
-0.261437339732
-0.261247633347
-0.261063655728
-0.259234350628
-0.250050308083
-0.200855321485
-0.0390130290031
0
0
0
0
0
0
0
0
0
0
0
0
0
0
0
0
0
0
0
0
0
0
0
0
0
0
0
0
0
0
0
0
0
0
0
0
0
0
0
0
0
0
0
0
0
0
0
)
;

boundaryField
{
    inflow
    {
        type            calculated;
        value           uniform 0;
    }
    outflow
    {
        type            calculated;
        value           uniform 0;
    }
    sides
    {
        type            empty;
    }
    topAndBottom
    {
        type            empty;
    }
}


// ************************************************************************* //
