/*--------------------------------*- C++ -*----------------------------------*\
  =========                 |
  \\      /  F ield         | OpenFOAM: The Open Source CFD Toolbox
   \\    /   O peration     | Website:  https://openfoam.org
    \\  /    A nd           | Version:  13
     \\/     M anipulation  |
\*---------------------------------------------------------------------------*/
FoamFile
{
    format      ascii;
    class       volScalarField;
    location    "1";
    object      Q1;
}
// * * * * * * * * * * * * * * * * * * * * * * * * * * * * * * * * * * * * * //

dimensions      [];

internalField   nonuniform List<scalar> 
200
(
0.5
0.5
0.5
0.5
0.5
0.5
0.5
0.5
0.5
0.5
0.5
0.5
0.5
0.5
0.5
0.5
0.5
0.5
0.5
0.5
0.5
0.5
0.5
0.5
0.5
0.5
0.5
0.5
0.5
0.5
0.5
0.5
0.5
0.5
0.5
0.5
0.5
0.5
0.5
0.5
0.5
0.5
0.5
0.5
0.5
0.5
0.5
0.5
0.5
0.5
0.5
0.5
0.5
0.499963119242
0.497732951116
0.49263480125
0.486445570331
0.4798503554
0.473099240188
0.466286851248
0.459455478634
0.452626909067
0.445814253432
0.439026176188
0.432268793739
0.425546603034
0.418862979161
0.412220516798
0.405621264246
0.399066883772
0.392558749704
0.386098002519
0.37968558694
0.373322293186
0.367008799313
0.360745701297
0.354533525117
0.348372729104
0.342263709653
0.336206815699
0.330202366154
0.324250660387
0.318351977614
0.31250657053
0.306714662477
0.30097645299
0.295292128545
0.289661871192
0.284085860387
0.278564269463
0.273097262084
0.267684992826
0.262327611678
0.257025268965
0.251778117604
0.24658631273
0.241450011386
0.236369374948
0.231344574558
0.226375797498
0.221463252152
0.216607171064
0.211807813849
0.207065472429
0.202380479923
0.197753222387
0.193184151397
0.188673795717
0.184222771828
0.179831794614
0.175501690455
0.171233415374
0.167028081382
0.162886995314
0.158811716214
0.154804139179
0.150866614187
0.147002105656
0.143214389468
0.139508269492
0.135889784515
0.132366388692
0.128947164056
0.125643239461
0.122468814456
0.119443346024
0.116595393758
0.113971891514
0.111645789435
0.109729967085
0.108455876571
0.107908938019
0.107894476181
0.107965165466
0.108222904129
0.108690001204
0.109326370354
0.110063144205
0.110809606482
0.111484014762
0.111983672253
0.112225294002
0.112323866102
0.112311759945
0.112247951654
0.112089694954
0.111878307225
0.111702204078
0.111245263527
0.109348473076
0.0998734328325
0.055935894353
0.0134997641528
0.01
0.01
0.01
0.01
0.01
0.01
0.01
0.01
0.01
0.01
0.01
0.01
0.01
0.01
0.01
0.01
0.01
0.01
0.01
0.01
0.01
0.01
0.01
0.01
0.01
0.01
0.01
0.01
0.01
0.01
0.01
0.01
0.01
0.01
0.01
0.01
0.01
0.01
0.01
0.01
0.01
0.01
0.01
0.01
0.01
0.01
0.01
)
;

boundaryField
{
    inflow
    {
        type            zeroGradient;
    }
    outflow
    {
        type            zeroGradient;
    }
    sides
    {
        type            empty;
    }
    topAndBottom
    {
        type            empty;
    }
}


// ************************************************************************* //
