/*--------------------------------*- C++ -*----------------------------------*\
  =========                 |
  \\      /  F ield         | OpenFOAM: The Open Source CFD Toolbox
   \\    /   O peration     | Website:  https://openfoam.org
    \\  /    A nd           | Version:  13
     \\/     M anipulation  |
\*---------------------------------------------------------------------------*/
FoamFile
{
    format      ascii;
    class       volScalarField;
    location    "1";
    object      Q2;
}
// * * * * * * * * * * * * * * * * * * * * * * * * * * * * * * * * * * * * * //

dimensions      [];

internalField   nonuniform List<scalar> 
200
(
0
0
0
0
0
0
0
0
0
0
0
0
0
0
0
0
0
0
0
0
0
0
0
0
0
0
0
0
0
0
0
0
0
0
0
0
0
0
0
0
0
0
0
0
0
0
0
0
0
0
0
0
0
8.16424829516e-05
0.00500094620904
0.0161272437261
0.029403959189
0.0432668967089
0.0571513726651
0.0708463151218
0.084258772544
0.0973424035171
0.110070925544
0.122428584881
0.134405854664
0.145997111527
0.157199326342
0.168011284266
0.178433127776
0.188466049967
0.198112049455
0.207373717552
0.216254078051
0.22475649938
0.23288465675
0.240642498386
0.24803419129
0.255064059857
0.261736545991
0.268056202376
0.27402770261
0.279655840601
0.284945506169
0.289901648678
0.294529252315
0.298833336004
0.302818969928
0.306491288833
0.309855488589
0.312916808913
0.315680516257
0.318151898381
0.320336270366
0.322238982494
0.323865421049
0.325221001591
0.326311161988
0.32714136274
0.327717095502
0.328043893816
0.328127338904
0.32797305854
0.327586723683
0.326974050225
0.326140810189
0.32509285105
0.323836118221
0.322376676559
0.32072073061
0.318874646814
0.316844981734
0.314638519028
0.312262316922
0.309723769449
0.307030689056
0.304191423464
0.301215023459
0.298111477996
0.294892024772
0.291569528462
0.288158901072
0.28467753507
0.281145808845
0.277587823189
0.274032945502
0.270518964223
0.267096700227
0.263846581938
0.260884451002
0.258370719817
0.2567335082
0.255980388981
0.255943234459
0.256030459273
0.25636963657
0.256989049344
0.257828875669
0.258797433085
0.25976957302
0.260658932997
0.261298708326
0.261559202939
0.261786502698
0.261783088868
0.261726879128
0.261531753791
0.261314160056
0.261293253842
0.260454087659
0.255209360955
0.22269896127
0.0919704747845
0.00436913457923
0
0
0
0
0
0
0
0
0
0
0
0
0
0
0
0
0
0
0
0
0
0
0
0
0
0
0
0
0
0
0
0
0
0
0
0
0
0
0
0
0
0
0
0
0
0
0
)
;

boundaryField
{
    inflow
    {
        type            zeroGradient;
    }
    outflow
    {
        type            zeroGradient;
    }
    sides
    {
        type            empty;
    }
    topAndBottom
    {
        type            empty;
    }
}


// ************************************************************************* //
