/*--------------------------------*- C++ -*----------------------------------*\
  =========                 |
  \\      /  F ield         | OpenFOAM: The Open Source CFD Toolbox
   \\    /   O peration     | Website:  https://openfoam.org
    \\  /    A nd           | Version:  13
     \\/     M anipulation  |
\*---------------------------------------------------------------------------*/
FoamFile
{
    format      ascii;
    class       surfaceScalarField;
    location    "1";
    object      Dm1;
}
// * * * * * * * * * * * * * * * * * * * * * * * * * * * * * * * * * * * * * //

dimensions      [0 3 -1 0 0 0 0];

internalField   nonuniform List<scalar> 
1599
(
0
0
0
0
0
0
0
0
0
0
0
0
0
0
0
0
0
0
0
0
0
0
0
0
0
0
0
0
0
0
0
0
0
0
0
0
0
0
0
0
0
0
0
0
0
0
0
0
0
0
0
0
0
0
0
0
0
0
0
0
0
0
0
0
0
0
0
0
0
0
0
0
0
0
0
0
0
0
0
0
0
0
0
0
0
0
0
0
0
0
0
0
0
0
0
0
0
0
0
0
0
0
0
0
0
0
0
0
0
0
0
0
0
0
0
0
0
0
0
0
0
0
0
0
0
0
0
0
0
0
0
0
0
0
0
0
0
0
0
0
0
0
0
0
0
0
0
0
0
0
0
0
0
0
0
0
0
0
0
0
0
0
0
0
0
0
0
0
0
0
0
0
0
0
0
0
0
0
0
0
0
0
0
0
0
0
0
0
0
0
0
0
0
0
0
0
0
0
0
0
0
0
0
0
0
0
0
0
0
0
0
0
0
0
0
0
0
0
0
0
0
0
0
0
0
0
0
0
0
0
0
0
0
0
0
0
0
0
0
0
0
0
0
0
0
0
0
0
0
0
0
0
0
0
0
0
0
0
0
0
0
0
0
0
0
0
0
0
0
0
0
0
0
0
0
0
0
0
0
0
0
0
0
0
0
0
0
0
1.31582460523e-17
9.86870456797e-17
5.94578428974e-16
1.08369522173e-15
1.59029334178e-15
2.09689450317e-15
2.69786534011e-15
3.2768433534e-15
3.84924572783e-15
4.42823076397e-15
5.01379849694e-15
5.5927906625e-15
6.17178643566e-15
6.75078581239e-15
7.33636792091e-15
7.92195369012e-15
8.59307183738e-15
9.86103074266e-15
1.13722269833e-14
1.38684379955e-14
1.76477908264e-14
2.33749820131e-14
3.17957230595e-14
4.39890083702e-14
6.22320276493e-14
8.85006149796e-14
1.26721287727e-13
1.81822474739e-13
2.61319022992e-13
3.75568206295e-13
5.39147431108e-13
7.72617668335e-13
1.10529409075e-12
1.57790841431e-12
2.247067757e-12
3.19290430568e-12
4.52588220393e-12
6.39935102341e-12
9.02586483026e-12
1.26979219401e-11
1.7818548468e-11
2.49403420315e-11
3.48191703884e-11
4.8485629249e-11
6.73422383095e-11
9.3290465312e-11
1.28902059802e-10
1.77645108381e-10
2.44183129577e-10
3.34768519595e-10
4.5776059069e-10
6.24302269208e-10
8.49204643642e-10
1.15209571579e-09
1.55891176298e-09
2.10382366247e-09
2.83171715063e-09
3.80137913375e-09
5.08957168729e-09
6.79622891992e-09
9.05105955312e-09
1.20219100611e-08
1.59253171087e-08
2.10397811144e-08
2.77223965106e-08
3.64296223709e-08
4.77431223021e-08
6.24017998791e-08
8.13413632761e-08
1.05743014267e-07
1.37093132999e-07
1.7725616512e-07
2.28563289136e-07
2.93919853391e-07
3.76935042014e-07
4.82077731925e-07
6.14863064513e-07
7.82074849319e-07
9.9202955268e-07
1.25488828709e-06
1.5830238941e-06
1.99145089709e-06
2.49832675555e-06
3.12553347407e-06
3.8993491554e-06
4.85121952832e-06
6.018639755e-06
7.44615691241e-06
9.1865033798e-06
1.1301870895e-05
1.38653342166e-05
1.69624320734e-05
2.06929113549e-05
2.51726382171e-05
3.05356769263e-05
3.69365337733e-05
4.45525592561e-05
5.35864969305e-05
6.42691619033e-05
7.68622259077e-05
9.16610793692e-05
0.000108997733938
0.000129243721787
0.000152812940757
0.000180164387425
0.000211804713607
0.000248290536046
0.000290230424384
0.000338286489294
0.000393175491264
0.000455669391213
0.000526595267238
0.000606834527506
0.000697321357822
0.000799040353647
0.000913023300424
0.00104034508254
0.00118211872
0.0013394895524
0.00151362861107
0.00170572524253
0.00191697906771
0.00214859138181
0.00240175611816
0.00267765051463
0.00297742563364
0.00330219689426
0.00365303477869
0.00403095587397
0.00443691440385
0.00487179439519
0.0053364026086
0.00583146234475
0.00635760821695
0.00691538195696
0.00750522929741
0.00812749794901
0.00878243666734
0.00947019538105
0.0101908263331
0.0109442861686
0.011730438888
0.0125490595723
0.0133998387796
0.0142823875056
0.0151962426009
0.0161408725357
0.0171156834093
0.0181200251048
0.0191531974976
0.0202144566334
0.0213030208044
0.0224180764558
0.0235587838718
0.0247242825948
0.0259136965431
0.0271261388021
0.028360716069
0.0296165327435
0.0308926946574
0.0321883124475
0.0335025045766
0.0348344000141
0.036183140589
0.0375478830323
0.0389278007265
0.0403220851812
0.0417299472544
0.0431506181409
0.0445833501462
0.0460274172674
0.0474821155991
0.0489467635826
0.0504207021171
0.0519032945475
0.0533939265456
0.0548920058986
0.0563969622167
0.0579082465742
0.0594253310925
0.0609477084769
0.0624748915142
0.0640064125411
0.0655418228886
0.0670806923093
0.0686226083944
0.0701671759822
0.0717140165659
0.0732627677011
0.0748130824186
0.0763646286431
0.0779170886212
0.0794701583607
0.0810235470817
0.0825769766811
0.084130181212
0.0856829063782
0.0872349090441
0.0887859567608
0.0903358273089
0.0918843082569
0.0934311965361
0.0949762980323
0.0965194271924
0.0980604066476
0.0995990668515
0.101135245734
0.102668788367
0.10419954665
0.105727379004
0.107252150079
0.108773730481
0.1102919965
0.111806829863
0.113318117487
0.11482575125
0.116329627773
0.117829648202
0.119325718018
0.120817746835
0.122305648226
0.123789339545
0.125268741762
0.126743779303
0.128214379903
0.129680474459
0.131141996894
0.132598884029
0.134051075454
0.13549851341
0.136941142681
0.13837891048
0.139811766348
0.141239662057
0.142662551517
0.144080390682
0.145493137471
0.146900751683
0.14830319492
0.149700430514
0.151092423456
0.152479140327
0.153860549235
0.155236619756
0.156607322869
0.157972630906
0.159332517495
0.160686957511
0.162035927026
0.16337940326
0.164717364541
0.166049790258
0.167376660823
0.16869795763
0.170013663018
0.171323760237
0.17262823341
0.173927067504
0.175220248297
0.176507762347
0.177789596964
0.179065740184
0.180336180739
0.181600908035
0.182859912126
0.184113183691
0.185360714011
0.186602494951
0.187838518933
0.189068778922
0.190293268405
0.191511981373
0.192724912303
0.193932056141
0.195133408288
0.196328964583
0.197518721287
0.19870267507
0.199880823
0.201053162523
0.202219691457
0.203380407978
0.204535310604
0.205684398191
0.206827669916
0.207965125268
0.209096764043
0.210222586324
0.211342592484
0.212456783166
0.213565159281
0.214667721997
0.215764472734
0.216855413152
0.217940545144
0.219019870834
0.220093392564
0.221161112889
0.222223034573
0.22327916058
0.22432949407
0.22537403839
0.226412797071
0.227445773825
0.228472972533
0.229494397245
0.230510052176
0.231519941697
0.232524070333
0.233522442758
0.234515063792
0.235501938396
0.236483071666
0.237458468834
0.238428135258
0.239392076425
0.240350297941
0.241302805535
0.242249605048
0.243190702434
0.244126103759
0.245055815192
0.245979843009
0.246898193584
0.247810873391
0.248717888998
0.249619247068
0.250514954353
0.251405017693
0.252289444016
0.253168240332
0.254041413732
0.254908971388
0.255770920548
0.256627268538
0.257478022754
0.258323190667
0.259162779815
0.259996797807
0.260825252315
0.26164815108
0.262465501902
0.263277312646
0.264083591236
0.264884345655
0.265679583941
0.266469314192
0.267253544558
0.268032283243
0.268805538501
0.269573318641
0.270335632018
0.271092487036
0.271843892149
0.272589855854
0.273330386694
0.274065493258
0.274795184176
0.27551946812
0.276238353806
0.276951849986
0.277659965455
0.278362709046
0.279060089627
0.279752116106
0.280438797426
0.281120142563
0.281796160532
0.282466860377
0.283132251178
0.283792342046
0.284447142124
0.285096660587
0.285740906637
0.28637988951
0.287013618468
0.287642102803
0.288265351832
0.288883374904
0.289496181392
0.290103780693
0.290706182235
0.291303395466
0.291895429861
0.29248229492
0.293064000165
0.293640555142
0.29421196942
0.294778252589
0.295339414262
0.295895464075
0.296446411681
0.296992266758
0.297533039001
0.298068738128
0.298599373873
0.299124955993
0.29964549426
0.300160998468
0.300671478427
0.301176943965
0.301677404929
0.302172871182
0.302663352605
0.303148859093
0.303629400561
0.304104986938
0.304575628169
0.305041334215
0.305502115052
0.305957980671
0.306408941078
0.306855006295
0.307296186355
0.307732491308
0.308163931218
0.308590516161
0.309012256227
0.309429161521
0.309841242158
0.310248508269
0.310650969997
0.311048637496
0.311441520933
0.31182963049
0.312212976357
0.312591568738
0.312965417849
0.313334533918
0.313698927182
0.314058607892
0.31441358631
0.314763872706
0.315109477366
0.315450410583
0.315786682662
0.316118303918
0.316445284677
0.316767635277
0.317085366062
0.317398487392
0.317707009632
0.31801094316
0.318310298362
0.318605085636
0.318895315388
0.319180998034
0.319462144001
0.319738763725
0.320010867649
0.32027846623
0.32054156993
0.320800189224
0.321054334594
0.321304016531
0.321549245537
0.321790032122
0.322026386806
0.322258320117
0.322485842594
0.322708964781
0.322927697237
0.323142050524
0.323352035218
0.323557661901
0.323758941165
0.323955883611
0.324148499849
0.324336800498
0.324520796186
0.32470049755
0.324875915236
0.3250470599
0.325213942205
0.325376572825
0.325534962443
0.325689121751
0.325839061449
0.325984792249
0.32612632487
0.326263670041
0.326396838501
0.326525840997
0.326650688289
0.326771391142
0.326887960334
0.327000406652
0.327108740893
0.327212973864
0.32731311638
0.327409179271
0.327501173371
0.327589109531
0.327672998606
0.327752851467
0.327828678992
0.327900492072
0.327968301609
0.328032118514
0.328091953712
0.328147818137
0.328199722736
0.328247678469
0.328291696304
0.328331787225
0.328367962227
0.328400232316
0.328428608512
0.328453101849
0.328473723372
0.328490484139
0.328503395225
0.328512467714
0.328517712707
0.32851914132
0.32851676468
0.328510593932
0.328500640234
0.328486914762
0.328469428703
0.328448193265
0.328423219669
0.328394519153
0.328362102974
0.328325982403
0.32828616873
0.328242673265
0.328195507333
0.328144682279
0.328090209468
0.328032100284
0.327970366131
0.327905018432
0.327836068634
0.327763528202
0.327687408625
0.327607721415
0.327524478103
0.327437690248
0.327347369431
0.327253527256
0.327156175355
0.327055325383
0.326950989025
0.326843177988
0.326731904011
0.326617178859
0.326499014328
0.32637742224
0.326252414453
0.326124002852
0.325992199356
0.325857015916
0.325718464518
0.325576557182
0.325431305963
0.325282722955
0.325130820286
0.324975610126
0.324817104682
0.324655316203
0.324490256979
0.324321939345
0.324150375676
0.323975578397
0.323797559977
0.323616332932
0.32343190983
0.323244303287
0.323053525972
0.322859590609
0.322662509975
0.322462296905
0.32225896429
0.322052525085
0.321842992304
0.321630379023
0.321414698388
0.321195963608
0.320974187964
0.320749384808
0.320521567564
0.320290749734
0.320056944896
0.319820166709
0.319580428918
0.319337745348
0.319092129916
0.318843596628
0.318592159585
0.318337832983
0.318080631119
0.317820568392
0.317557659306
0.317291918475
0.317023360627
0.316752000604
0.316477853369
0.316200934009
0.315921257739
0.315638839906
0.315353695993
0.315065841624
0.314775292568
0.314482064746
0.31418617423
0.313887637256
0.313586470225
0.313282689709
0.312976312454
0.312667355392
0.312355835644
0.312041770525
0.311725177552
0.31140607445
0.311084479163
0.310760409855
0.310433884923
0.310104923002
0.309773542976
0.309439763982
0.309103605424
0.308765086981
0.308424228612
0.308081050573
0.307735573423
0.307387818034
0.307037805607
0.306685557677
0.306331096132
0.305974443219
0.30561562156
0.305254654168
0.304891564456
0.304526376254
0.304159113824
0.303789801875
0.303418465582
0.303045130596
0.302669823069
0.30229256967
0.3019133976
0.301532334615
0.301149409046
0.300764649821
0.300378086483
0.299989749216
0.299599668867
0.299207876971
0.298814405775
0.298419288265
0.298022558194
0.297624250108
0.297224399375
0.296823042216
0.296420215737
0.296015957959
0.295610307852
0.295203305369
0.294794991483
0.294385408221
0.293974598704
0.293562607183
0.293149479085
0.292735261046
0.292320000961
0.291903748024
0.291486552773
0.291068467137
0.290649544483
0.290229839666
0.289809409076
0.289388310689
0.288966604121
0.288544350679
0.288121613416
0.287698457182
0.287274948684
0.286851156539
0.286427151329
0.286003005661
0.285578794222
0.285154593836
0.284730483522
0.284306544546
0.283882860482
0.283459517261
0.283036603229
0.282614209196
0.282192428483
0.281771356976
0.28135109316
0.280931738167
0.280513395811
0.280096172615
0.279680177846
0.279265523525
0.278852324452
0.278440698203
0.278030765135
0.277622648369
0.277216473776
0.276812369939
0.276410468112
0.276010902163
0.275613808502
0.275219325996
0.274827595865
0.274438761564
0.274052968642
0.273670364587
0.273291098647
0.272915321627
0.272543185672
0.272174844013
0.271810450705
0.271450160323
0.27109412765
0.270742507324
0.270395453469
0.270053119297
0.269715656681
0.269383215716
0.269055944236
0.268733987329
0.268417486819
0.268106580731
0.267801402744
0.267502081626
0.267208740662
0.266921497072
0.266640461431
0.266365737087
0.266097419586
0.265835596113
0.265580344944
0.265331734928
0.265089824988
0.264854663669
0.264626288714
0.264404726696
0.264189992693
0.263982090029
0.263781010068
0.26358673208
0.263399223177
0.263218438317
0.263044320389
0.262876800374
0.262715797577
0.262561219946
0.262412964457
0.262270917579
0.262134955803
0.26200494624
0.261880747276
0.261762209283
0.261649175374
0.261541482195
0.261438960759
0.261341437286
0.26124873407
0.261160670347
0.261077063159
0.260997728204
0.260922480672
0.260851136049
0.26078351089
0.260719423546
0.260658694851
0.260601148758
0.260546612914
0.260494919186
0.260445904122
0.260399409356
0.260355281949
0.260313374671
0.260273546229
0.260235661427
0.260199591286
0.260165213104
0.260132410469
0.260101073231
0.260071097432
0.260042385203
0.260014844623
0.259988389561
0.259962939486
0.259938419257
0.25991475891
0.259891893418
0.25986976245
0.259848310127
0.25982748477
0.259807238655
0.259787527761
0.259768311531
0.259749552634
0.25973121674
0.259713272293
0.259695690307
0.25967844416
0.259661509407
0.259644863599
0.259628486114
0.259612358001
0.259596461832
0.259580781568
0.259565302429
0.259550010782
0.259534894033
0.259519940528
0.259505139464
0.25949048081
0.259475955231
0.259461554019
0.259447269039
0.259433092666
0.259419017738
0.259405037513
0.259391145628
0.259377336064
0.25936360311
0.259349941339
0.259336345577
0.259322810882
0.259309332525
0.259295905965
0.25928252684
0.259269190944
0.259255894217
0.259242632736
0.259229402695
0.259216200403
0.259203022272
0.259189864808
0.259176724603
0.259163598329
0.259150482732
0.259137374625
0.259124270884
0.259111168441
0.25909806428
0.259084955434
0.25907183898
0.259058712034
0.259045571747
0.259032415307
0.259019239928
0.259006042851
0.258992821342
0.258979572687
0.258966294188
0.258952983166
0.258939636952
0.258926252887
0.258912828321
0.25889936061
0.258885847111
0.258872285184
0.258858672186
0.258845005473
0.258831282391
0.258817500283
0.258803656479
0.258789748298
0.258775773044
0.258761728007
0.258747610456
0.258733417642
0.258719146792
0.258704795108
0.258690359767
0.258675837916
0.258661226671
0.258646523114
0.258631724294
0.258616827219
0.258601828859
0.258586726141
0.258571515947
0.25855619511
0.258540760416
0.258525208596
0.258509536324
0.258493740216
0.258477816822
0.258461762618
0.258445574
0.258429247255
0.258412778531
0.258396163757
0.2583793985
0.25836247768
0.258345394994
0.258328141773
0.258310704687
0.25829306115
0.258275170103
0.25825695355
0.25823825952
0.258218787827
0.258197941244
0.258174527185
0.258146159864
0.258108062563
0.258050669359
0.257954827977
0.257782223514
0.257456337542
0.256824885963
0.255586883548
0.253155487176
0.248416573439
0.239361134648
0.222708617503
0.194073304945
0.149986355337
0.0931648782534
0.0384883608391
0.00724647765804
0.000413025494939
1.07160169231e-05
2.54394938037e-07
6.02991949305e-09
1.42938195133e-10
3.38831100965e-12
8.03184074955e-14
1.90355609504e-15
4.53549335271e-17
8.01722331252e-19
3.21246082046e-21
0
0
0
0
0
0
0
0
0
0
0
0
0
0
0
0
0
0
0
0
0
0
0
0
0
0
0
0
0
0
0
0
0
0
0
0
0
0
0
0
0
0
0
0
0
0
0
0
0
0
0
0
0
0
0
0
0
0
0
0
0
0
0
0
0
0
0
0
0
0
0
0
0
0
0
0
0
0
0
0
0
0
0
0
0
0
0
0
0
0
0
0
0
0
0
0
0
0
0
0
0
0
0
0
0
0
0
0
0
0
0
0
0
0
0
0
0
0
0
0
0
0
0
0
0
0
0
0
0
0
0
0
0
0
0
0
0
0
0
0
0
0
0
0
0
0
0
0
0
0
0
0
0
0
0
0
0
0
0
0
0
0
0
0
0
0
0
0
0
0
0
0
0
0
0
0
0
0
0
0
0
0
0
0
0
0
0
0
0
0
0
0
0
0
0
0
0
0
0
0
0
0
0
0
0
0
0
0
0
0
0
0
0
0
0
0
0
0
0
0
0
0
0
0
0
0
0
0
0
0
0
0
0
0
0
0
0
0
0
0
0
0
0
0
0
0
0
0
0
0
0
0
0
0
0
0
0
0
0
0
0
0
0
0
0
0
0
0
0
0
0
0
0
0
0
0
0
0
0
0
0
0
0
0
0
0
0
0
0
0
0
0
0
0
0
0
0
0
0
0
0
0
0
0
0
0
0
0
0
0
0
0
0
0
0
0
0
0
0
0
0
0
0
0
0
0
0
0
0
0
0
0
0
0
0
0
0
0
0
0
0
0
0
0
0
0
0
0
0
0
0
0
0
0
0
0
0
0
0
0
0
0
0
0
0
0
0
0
0
0
0
0
0
0
0
0
0
0
0
)
;

boundaryField
{
    inflow
    {
        type            calculated;
        value           uniform -0;
    }
    outflow
    {
        type            calculated;
        value           uniform 0;
    }
    sides
    {
        type            empty;
    }
    topAndBottom
    {
        type            empty;
    }
}


// ************************************************************************* //
