/*--------------------------------*- C++ -*----------------------------------*\
  =========                 |
  \\      /  F ield         | OpenFOAM: The Open Source CFD Toolbox
   \\    /   O peration     | Website:  https://openfoam.org
    \\  /    A nd           | Version:  13
     \\/     M anipulation  |
\*---------------------------------------------------------------------------*/
FoamFile
{
    format      ascii;
    class       surfaceScalarField;
    location    "1";
    object      Dm2;
}
// * * * * * * * * * * * * * * * * * * * * * * * * * * * * * * * * * * * * * //

dimensions      [0 3 -1 0 0 0 0];

internalField   nonuniform List<scalar> 
1599
(
1.22625
1.22625
1.22625
1.22625
1.22625
1.22625
1.22625
1.22625
1.22625
1.22625
1.22625
1.22625
1.22625
1.22625
1.22625
1.22625
1.22625
1.22625
1.22625
1.22625
1.22625
1.22625
1.22625
1.22625
1.22625
1.22625
1.22625
1.22625
1.22625
1.22625
1.22625
1.22625
1.22625
1.22625
1.22625
1.22625
1.22625
1.22625
1.22625
1.22625
1.22625
1.22625
1.22625
1.22625
1.22625
1.22625
1.22625
1.22625
1.22625
1.22625
1.22625
1.22625
1.22625
1.22625
1.22625
1.22625
1.22625
1.22625
1.22625
1.22625
1.22625
1.22625
1.22625
1.22625
1.22625
1.22625
1.22625
1.22625
1.22625
1.22625
1.22625
1.22625
1.22625
1.22625
1.22625
1.22625
1.22625
1.22625
1.22625
1.22625
1.22625
1.22625
1.22625
1.22625
1.22625
1.22625
1.22625
1.22625
1.22625
1.22625
1.22625
1.22625
1.22625
1.22625
1.22625
1.22625
1.22625
1.22625
1.22625
1.22625
1.22625
1.22625
1.22625
1.22625
1.22625
1.22625
1.22625
1.22625
1.22625
1.22625
1.22625
1.22625
1.22625
1.22625
1.22625
1.22625
1.22625
1.22625
1.22625
1.22625
1.22625
1.22625
1.22625
1.22625
1.22625
1.22625
1.22625
1.22625
1.22625
1.22625
1.22625
1.22625
1.22625
1.22625
1.22625
1.22625
1.22625
1.22625
1.22625
1.22625
1.22625
1.22625
1.22625
1.22625
1.22625
1.22625
1.22625
1.22625
1.22625
1.22625
1.22625
1.22625
1.22625
1.22625
1.22625
1.22625
1.22625
1.22625
1.22625
1.22625
1.22625
1.22625
1.22625
1.22625
1.22625
1.22625
1.22625
1.22625
1.22625
1.22625
1.22625
1.22625
1.22625
1.22625
1.22625
1.22625
1.22625
1.22625
1.22625
1.22625
1.22625
1.22625
1.22625
1.22625
1.22625
1.22625
1.22625
1.22625
1.22625
1.22625
1.22625
1.22625
1.22625
1.22625
1.22625
1.22625
1.22625
1.22625
1.22625
1.22625
1.22625
1.22625
1.22625
1.22625
1.22625
1.22625
1.22625
1.22625
1.22625
1.22625
1.22625
1.22625
1.22625
1.22625
1.22625
1.22625
1.22625
1.22625
1.22625
1.22625
1.22625
1.22625
1.22625
1.22625
1.22625
1.22625
1.22625
1.22625
1.22625
1.22625
1.22625
1.22625
1.22625
1.22625
1.22625
1.22625
1.22625
1.22625
1.22625
1.22625
1.22625
1.22625
1.22625
1.22625
1.22625
1.22625
1.22625
1.22625
1.22625
1.22625
1.22625
1.22625
1.22625
1.22625
1.22625
1.22625
1.22625
1.22625
1.22625
1.22625
1.22625
1.22625
1.22625
1.22625
1.22625
1.22625
1.22625
1.22625
1.22625
1.22625
1.22625
1.22625
1.22625
1.22625
1.22625
1.22625
1.22625
1.22625
1.22625
1.22625
1.22625
1.22625
1.22625
1.22625
1.22625
1.22625
1.22625
1.22625
1.22625
1.22625
1.22625
1.22625
1.22625
1.22625
1.22625
1.22625
1.22625
1.22625
1.22625
1.22625
1.22625
1.22625
1.22625
1.22625
1.22625
1.22625
1.22625
1.22625
1.22625
1.22625
1.22625
1.22625
1.22625
1.22625
1.22625
1.22625
1.22625
1.22625
1.22625
1.22625
1.22625
1.22625
1.22625
1.22624999999
1.22624999999
1.22624999999
1.22624999998
1.22624999997
1.22624999996
1.22624999994
1.22624999992
1.22624999989
1.22624999985
1.22624999979
1.22624999971
1.22624999961
1.22624999946
1.22624999926
1.22624999899
1.22624999862
1.22624999812
1.22624999745
1.22624999655
1.22624999534
1.22624999373
1.22624999158
1.22624998873
1.22624998495
1.22624997995
1.22624997337
1.22624996473
1.2262499534
1.2262499386
1.22624991932
1.22624989426
1.2262498618
1.22624981985
1.22624976581
1.22624969638
1.22624960743
1.2262494938
1.22624934905
1.22624916519
1.22624893233
1.22624863825
1.22624826792
1.22624780293
1.22624722077
1.22624649404
1.22624558949
1.22624446691
1.22624307782
1.22624136404
1.22623925592
1.22623667043
1.2262335089
1.22622965456
1.22622496967
1.2262192924
1.22621243332
1.22620417154
1.22619425048
1.22618237327
1.22616819776
1.22615133127
1.22613132488
1.22610766756
1.22607977998
1.22604700823
1.22600861738
1.22596378511
1.22591159546
1.2258510328
1.22578097625
1.22570019466
1.22560734226
1.22550095533
1.22537944984
1.22524112044
1.22508414081
1.2249065657
1.22470633464
1.22448127748
1.22422912194
1.22394750305
1.22363397463
1.2232860227
1.22290108065
1.22247654624
1.2220098
1.2214982249
1.22093922709
1.22033025714
1.21966883176
1.21895255538
1.21817914126
1.21734643192
1.21645241831
1.2154952575
1.21447328866
1.21338504686
1.21222927471
1.21100493156
1.20971120012
1.20834749065
1.20691344249
1.20540892319
1.20383402525
1.20218906069
1.20047455357
1.19869123081
1.19684001137
1.19492199422
1.1929384452
1.19089078322
1.18878056579
1.18660947435
1.18437929947
1.18209192621
1.17974931969
1.1773535112
1.17490658476
1.17241066444
1.16986790237
1.1672804676
1.16465053574
1.1619802795
1.15927186014
1.15652741971
1.1537490742
1.15093890742
1.14809896582
1.14523125387
1.14233773023
1.13942030462
1.13648083514
1.13352112632
1.13054292751
1.12754793183
1.12453777549
1.12151403744
1.11847823944
1.11543184628
1.11237626631
1.10931285225
1.106242902
1.10316765981
1.10008831737
1.0970060152
1.09392184394
1.09083684585
1.08775201623
1.08466830498
1.08158661809
1.07850781919
1.0754327311
1.07236213732
1.06929678353
1.06623737912
1.06318459858
1.06013908296
1.05710144125
1.0540722517
1.05105206315
1.0480413963
1.04504074491
1.04205057699
1.03907133595
1.03610344169
1.03314729163
1.03020326177
1.02727170758
1.02435296503
1.02144735141
1.01855516618
1.01567669184
1.01281219466
1.00996192544
1.00712612022
1.00430500096
1.00149877621
0.998707641673
0.995931780843
0.993171365551
0.990426556499
0.98769750377
0.98498434732
0.982287217435
0.979606235177
0.976941512801
0.974293154161
0.971661255085
0.969045903744
0.966447180995
0.963865160715
0.961299910109
0.958751490016
0.956219955188
0.953705354567
0.951207731542
0.948727124193
0.946263565531
0.94381708372
0.941387702287
0.938975440332
0.936580312718
0.934202330259
0.931841499892
0.92949782485
0.927171304822
0.924861936105
0.922569711749
0.9202946217
0.918036652933
0.915795789576
0.913572013036
0.911365302111
0.909175633105
0.90700297993
0.904847314211
0.902708605381
0.900586820773
0.898481925712
0.896393883593
0.89432265597
0.892268202628
0.89023048166
0.888209449536
0.886205061174
0.88421727
0.882246028017
0.880291285858
0.878352992851
0.876431097065
0.87452554537
0.872636283484
0.870763256021
0.868906406538
0.867065677582
0.865241010729
0.863432346626
0.861639625032
0.859862784854
0.858101764184
0.856356500333
0.854626929867
0.852912988635
0.851214611803
0.849531733884
0.847864288764
0.846212209733
0.844575429506
0.842953880255
0.841347493628
0.839756200776
0.838179932374
0.836618618643
0.83507218937
0.833540573932
0.832023701311
0.830521500115
0.829033898594
0.827560824662
0.826102205909
0.824657969619
0.823228042786
0.821812352128
0.820410824105
0.819023384926
0.817649960569
0.816290476791
0.814944859143
0.813613032978
0.812294923467
0.810990455607
0.809699554236
0.808422144038
0.807158149559
0.805907495212
0.80467010529
0.803445903973
0.802234815339
0.80103676337
0.799851671963
0.798679464937
0.797520066039
0.796373398955
0.795239387314
0.794117954698
0.793009024647
0.791912520665
0.790828366229
0.789756484793
0.788696799795
0.787649234662
0.786613712816
0.785590157681
0.784578492686
0.783578641271
0.782590526892
0.781614073026
0.780649203177
0.779695840878
0.778753909695
0.777823333236
0.77690403515
0.775995939133
0.775098968933
0.774213048351
0.773338101249
0.772474051548
0.771620823237
0.770778340372
0.769946527082
0.769125307571
0.768314606121
0.767514347096
0.766724454943
0.765944854199
0.765175469487
0.764416225524
0.763667047125
0.762927859197
0.762198586753
0.761479154903
0.760769488866
0.760069513967
0.759379155639
0.758698339427
0.75802699099
0.757365036102
0.756712400656
0.756069010662
0.755434792253
0.754809671685
0.754193575338
0.753586429719
0.752988161463
0.752398697336
0.751817964235
0.75124588919
0.750682399365
0.750127422061
0.749580884717
0.749042714908
0.748512840354
0.747991188911
0.747477688584
0.746972267517
0.746474854002
0.745985376477
0.745503763529
0.745029943891
0.74456384645
0.744105400241
0.743654534453
0.743211178427
0.74277526166
0.742346713802
0.741925464661
0.741511444201
0.741104582546
0.740704809977
0.740312056937
0.739926254026
0.739547332011
0.739175221816
0.738809854532
0.738451161413
0.738099073877
0.737753523508
0.737414442057
0.737081761441
0.736755413745
0.736435331223
0.736121446297
0.735813691558
0.735511999771
0.735216303868
0.734926536954
0.734642632307
0.734364523377
0.734092143788
0.733825427336
0.733564307994
0.73330871991
0.733058597405
0.732813874978
0.732574487304
0.732340369237
0.732111455806
0.731887682219
0.731668983863
0.731455296304
0.731246555287
0.731042696738
0.730843656761
0.730649371644
0.730459777854
0.73027481204
0.730094411035
0.729918511851
0.729747051686
0.72957996792
0.729417198117
0.729258680024
0.729104351574
0.728954150884
0.728808016255
0.728665886176
0.72852769932
0.728393394546
0.728262910902
0.72813618762
0.72801316412
0.72789378001
0.727777975087
0.727665689333
0.727556862922
0.727451436214
0.727349349761
0.727250544301
0.727154960765
0.727062540272
0.726973224132
0.726886953845
0.726803671103
0.726723317789
0.726645835976
0.726571167932
0.726499256114
0.726430043172
0.726363471949
0.726299485482
0.726238027
0.726179039925
0.726122467875
0.726068254658
0.726016344281
0.725966680943
0.725919209038
0.725873873155
0.725830618079
0.725789388791
0.725750130467
0.72571278848
0.725677308399
0.72564363599
0.725611717216
0.725581498238
0.725552925414
0.7255259453
0.725500504649
0.725476550416
0.72545402975
0.725432890003
0.725413078725
0.725394543665
0.725377232772
0.725361094196
0.725346076288
0.725332127599
0.725319196881
0.725307233087
0.725296185374
0.725286003099
0.725276635822
0.725268033306
0.725260145517
0.725252922625
0.725246315003
0.725240273229
0.725234748084
0.725229690555
0.725225051835
0.725220783321
0.725216836616
0.725213163532
0.725209716085
0.725206446499
0.725203307206
0.725200250846
0.725197230267
0.725194198527
0.725191108891
0.725187914837
0.725184570051
0.72518102843
0.725177244084
0.725173171333
0.72516876471
0.725163978961
0.725158769045
0.725153090134
0.725146897617
0.725140147096
0.72513279439
0.725124795533
0.725116106776
0.725106684589
0.72509648566
0.725085466894
0.725073585418
0.725060798577
0.72504706394
0.725032339296
0.725016582656
0.724999752257
0.724981806557
0.724962704242
0.724942404223
0.724920865636
0.724898047849
0.724873910455
0.724848413278
0.724821516373
0.724793180029
0.724763364763
0.72473203133
0.724699140719
0.724664654156
0.724628533104
0.724590739263
0.724551234578
0.72450998123
0.724466941646
0.724422078498
0.7243753547
0.724326733418
0.724276178063
0.724223652299
0.72416912004
0.724112545456
0.724053892971
0.723993127267
0.723930213286
0.723865116229
0.723797801565
0.723728235023
0.723656382604
0.723582210576
0.72350568548
0.723426774134
0.723345443629
0.723261661338
0.723175394917
0.723086612306
0.722995281731
0.722901371713
0.722804851065
0.722705688895
0.722603854614
0.722499317936
0.722392048883
0.722282017786
0.722169195292
0.722053552366
0.721935060295
0.721813690696
0.721689415512
0.721562207026
0.721432037859
0.721298880977
0.721162709697
0.721023497691
0.720881218992
0.720735847999
0.720587359484
0.720435728594
0.720280930864
0.720122942219
0.71996173898
0.719797297874
0.719629596039
0.719458611033
0.719284320841
0.719106703883
0.718925739022
0.718741405575
0.718553683319
0.718362552504
0.718167993858
0.717969988601
0.717768518455
0.717563565655
0.717355112958
0.717143143659
0.716927641599
0.716708591182
0.716485977384
0.716259785772
0.716030002512
0.715796614391
0.715559608827
0.715318973888
0.715074698306
0.714826771501
0.714575183591
0.714319925416
0.714060988557
0.713798365353
0.71353204893
0.713262033214
0.712988312959
0.712710883772
0.712429742135
0.712144885431
0.711856311972
0.711564021029
0.711268012856
0.710968288724
0.710664850952
0.710357702938
0.710046849195
0.709732295385
0.709414048355
0.709092116176
0.708766508185
0.708437235019
0.708104308666
0.707767742504
0.707427551346
0.707083751494
0.70673636078
0.706385398625
0.706030886085
0.705672845912
0.705311302608
0.704946282483
0.704577813719
0.704205926429
0.703830652729
0.703452026796
0.703070084947
0.702684865705
0.702296409872
0.701904760611
0.70150996352
0.701112066715
0.700711120909
0.700307179504
0.69990029867
0.699490537442
0.699077957805
0.698662624793
0.698244606578
0.697823974571
0.697400803519
0.696975171603
0.696547160542
0.696116855688
0.695684346136
0.695249724819
0.694813088615
0.694374538443
0.693934179371
0.693492120707
0.693048476101
0.692603363635
0.692156905918
0.691709230169
0.691260468301
0.690810756996
0.690360237772
0.689909057047
0.68945736619
0.689005321562
0.688553084551
0.688100821584
0.687648704137
0.687196908718
0.686745616843
0.686295014986
0.685845294512
0.685396651585
0.684949287057
0.684503406327
0.684059219173
0.683616939557
0.683176785397
0.682738978307
0.682303743302
0.681871308469
0.681441904599
0.681015764781
0.680593123958
0.680174218441
0.679759285385
0.679348562223
0.678942286058
0.678540693023
0.678144017591
0.677752491861
0.6773663448
0.67698580146
0.676611082163
0.676242401665
0.675879968299
0.675523983103
0.675174638945
0.674832119639
0.674496599073
0.674168240346
0.673847194928
0.673533601847
0.673227586919
0.672929262017
0.672638724401
0.672356056111
0.672081323428
0.671814576421
0.671555848577
0.671305156526
0.671062499868
0.670827861097
0.670601205642
0.670382482014
0.67017162206
0.669968541335
0.669773139575
0.669585301285
0.669404896414
0.669231781138
0.669065798719
0.668906780449
0.668754546659
0.668608907787
0.66846966549
0.668336613797
0.668209540275
0.668088227215
0.667972452812
0.667861992328
0.667756619239
0.667656106337
0.667560226799
0.66746875519
0.667381468416
0.667298146602
0.6672185739
0.667142539223
0.667069836897
0.66700026723
0.666933637006
0.666869759893
0.666808456773
0.666749556001
0.666692893583
0.666638313292
0.666585666716
0.666534813247
0.666485620021
0.6664379618
0.666391720821
0.666346786601
0.666303055715
0.666260431543
0.666218824001
0.666178149251
0.666138329397
0.666099292184
0.66606097068
0.666023302965
0.665986231818
0.665949704415
0.665913672025
0.665878089723
0.665842916109
0.665808113043
0.665773645383
0.665739480748
0.665705589291
0.665671943475
0.665638517883
0.665605289023
0.665572235157
0.665539336139
0.665506573266
0.665473929142
0.665441387555
0.665408933357
0.665376552365
0.665344231261
0.665311957508
0.66527971928
0.665247505376
0.665215305163
0.66518310852
0.665150905784
0.665118687705
0.665086445402
0.665054170325
0.665021854224
0.664989489114
0.664957067252
0.664924581106
0.664892023339
0.664859386786
0.664826664434
0.664793849408
0.664760934955
0.664727914429
0.664694781281
0.664661529045
0.664628151326
0.664594641797
0.664560994182
0.664527202251
0.664493259812
0.664459160703
0.664424898787
0.66439046794
0.664355862051
0.664321075012
0.664286100713
0.664250933035
0.664215565849
0.664179993006
0.664144208332
0.664108205628
0.664071978658
0.664035521149
0.663998826785
0.663961889203
0.663924701983
0.663887258653
0.663849552674
0.663811577444
0.663773326286
0.663734792448
0.663695969097
0.663656849313
0.663617426086
0.66357769231
0.663537640778
0.663497264175
0.663456555078
0.663415505945
0.663374109114
0.663332356794
0.663290241062
0.663247753857
0.66320488697
0.663161632046
0.663117980568
0.66307392386
0.663029453074
0.662984559184
0.662939232982
0.662893465067
0.662847245839
0.662800565491
0.662753413996
0.662705781099
0.662657656298
0.662609028823
0.662559887594
0.662510221156
0.662460017548
0.662409264056
0.662357946725
0.662306049391
0.662253551749
0.662200425491
0.662146626573
0.662092079712
0.662036647318
0.661980067201
0.66192182769
0.661860917274
0.661795322735
0.661721023232
0.661629974537
0.661506071037
0.661317062058
0.660998389051
0.660420946671
0.659327083387
0.657204756838
0.653044794021
0.644890780605
0.629071504262
0.599126128692
0.545055507665
0.455216710584
0.325269079303
0.175224861582
0.0559794339975
0.00661802194168
0.000641515380819
0.00049386550446
0.000490579683653
0.000490501888629
0.00049050004477
0.000490500001061
0.000490500000025
0.000490500000001
0.0004905
0.0004905
0.0004905
0.0004905
0.0004905
0.0004905
0.0004905
0.0004905
0.0004905
0.0004905
0.0004905
0.0004905
0.0004905
0.0004905
0.0004905
0.0004905
0.0004905
0.0004905
0.0004905
0.0004905
0.0004905
0.0004905
0.0004905
0.0004905
0.0004905
0.0004905
0.0004905
0.0004905
0.0004905
0.0004905
0.0004905
0.0004905
0.0004905
0.0004905
0.0004905
0.0004905
0.0004905
0.0004905
0.0004905
0.0004905
0.0004905
0.0004905
0.0004905
0.0004905
0.0004905
0.0004905
0.0004905
0.0004905
0.0004905
0.0004905
0.0004905
0.0004905
0.0004905
0.0004905
0.0004905
0.0004905
0.0004905
0.0004905
0.0004905
0.0004905
0.0004905
0.0004905
0.0004905
0.0004905
0.0004905
0.0004905
0.0004905
0.0004905
0.0004905
0.0004905
0.0004905
0.0004905
0.0004905
0.0004905
0.0004905
0.0004905
0.0004905
0.0004905
0.0004905
0.0004905
0.0004905
0.0004905
0.0004905
0.0004905
0.0004905
0.0004905
0.0004905
0.0004905
0.0004905
0.0004905
0.0004905
0.0004905
0.0004905
0.0004905
0.0004905
0.0004905
0.0004905
0.0004905
0.0004905
0.0004905
0.0004905
0.0004905
0.0004905
0.0004905
0.0004905
0.0004905
0.0004905
0.0004905
0.0004905
0.0004905
0.0004905
0.0004905
0.0004905
0.0004905
0.0004905
0.0004905
0.0004905
0.0004905
0.0004905
0.0004905
0.0004905
0.0004905
0.0004905
0.0004905
0.0004905
0.0004905
0.0004905
0.0004905
0.0004905
0.0004905
0.0004905
0.0004905
0.0004905
0.0004905
0.0004905
0.0004905
0.0004905
0.0004905
0.0004905
0.0004905
0.0004905
0.0004905
0.0004905
0.0004905
0.0004905
0.0004905
0.0004905
0.0004905
0.0004905
0.0004905
0.0004905
0.0004905
0.0004905
0.0004905
0.0004905
0.0004905
0.0004905
0.0004905
0.0004905
0.0004905
0.0004905
0.0004905
0.0004905
0.0004905
0.0004905
0.0004905
0.0004905
0.0004905
0.0004905
0.0004905
0.0004905
0.0004905
0.0004905
0.0004905
0.0004905
0.0004905
0.0004905
0.0004905
0.0004905
0.0004905
0.0004905
0.0004905
0.0004905
0.0004905
0.0004905
0.0004905
0.0004905
0.0004905
0.0004905
0.0004905
0.0004905
0.0004905
0.0004905
0.0004905
0.0004905
0.0004905
0.0004905
0.0004905
0.0004905
0.0004905
0.0004905
0.0004905
0.0004905
0.0004905
0.0004905
0.0004905
0.0004905
0.0004905
0.0004905
0.0004905
0.0004905
0.0004905
0.0004905
0.0004905
0.0004905
0.0004905
0.0004905
0.0004905
0.0004905
0.0004905
0.0004905
0.0004905
0.0004905
0.0004905
0.0004905
0.0004905
0.0004905
0.0004905
0.0004905
0.0004905
0.0004905
0.0004905
0.0004905
0.0004905
0.0004905
0.0004905
0.0004905
0.0004905
0.0004905
0.0004905
0.0004905
0.0004905
0.0004905
0.0004905
0.0004905
0.0004905
0.0004905
0.0004905
0.0004905
0.0004905
0.0004905
0.0004905
0.0004905
0.0004905
0.0004905
0.0004905
0.0004905
0.0004905
0.0004905
0.0004905
0.0004905
0.0004905
0.0004905
0.0004905
0.0004905
0.0004905
0.0004905
0.0004905
0.0004905
0.0004905
0.0004905
0.0004905
0.0004905
0.0004905
0.0004905
0.0004905
0.0004905
0.0004905
0.0004905
0.0004905
0.0004905
0.0004905
0.0004905
0.0004905
0.0004905
0.0004905
0.0004905
0.0004905
0.0004905
0.0004905
0.0004905
0.0004905
0.0004905
0.0004905
0.0004905
0.0004905
0.0004905
0.0004905
0.0004905
0.0004905
0.0004905
0.0004905
0.0004905
0.0004905
0.0004905
0.0004905
0.0004905
0.0004905
0.0004905
0.0004905
0.0004905
0.0004905
0.0004905
0.0004905
0.0004905
0.0004905
0.0004905
0.0004905
0.0004905
0.0004905
0.0004905
0.0004905
0.0004905
0.0004905
0.0004905
0.0004905
0.0004905
0.0004905
0.0004905
0.0004905
0.0004905
0.0004905
0.0004905
0.0004905
0.0004905
0.0004905
0.0004905
0.0004905
0.0004905
0.0004905
0.0004905
0.0004905
0.0004905
0.0004905
0.0004905
0.0004905
0.0004905
0.0004905
0.0004905
0.0004905
0.0004905
0.0004905
0.0004905
0.0004905
0.0004905
0.0004905
0.0004905
0.0004905
0.0004905
0.0004905
0.0004905
0.0004905
0.0004905
0.0004905
0.0004905
0.0004905
0.0004905
0.0004905
0.0004905
0.0004905
0.0004905
0.0004905
0.0004905
0.0004905
0.0004905
0.0004905
0.0004905
0.0004905
0.0004905
0.0004905
0.0004905
0.0004905
)
;

boundaryField
{
    inflow
    {
        type            calculated;
        value           uniform -1.22625;
    }
    outflow
    {
        type            calculated;
        value           uniform 0.0004905;
    }
    sides
    {
        type            empty;
    }
    topAndBottom
    {
        type            empty;
    }
}


// ************************************************************************* //
