/*--------------------------------*- C++ -*----------------------------------*\
  =========                 |
  \\      /  F ield         | OpenFOAM: The Open Source CFD Toolbox
   \\    /   O peration     | Website:  https://openfoam.org
    \\  /    A nd           | Version:  13
     \\/     M anipulation  |
\*---------------------------------------------------------------------------*/
FoamFile
{
    format      ascii;
    class       volScalarField;
    location    "1";
    object      Q1;
}
// * * * * * * * * * * * * * * * * * * * * * * * * * * * * * * * * * * * * * //

dimensions      [];

internalField   nonuniform List<scalar> 
1600
(
0.5
0.5
0.5
0.5
0.5
0.5
0.5
0.5
0.5
0.5
0.5
0.5
0.5
0.5
0.5
0.5
0.5
0.5
0.5
0.5
0.5
0.5
0.5
0.5
0.5
0.5
0.5
0.5
0.5
0.5
0.5
0.5
0.5
0.5
0.5
0.5
0.5
0.5
0.5
0.5
0.5
0.5
0.5
0.5
0.5
0.5
0.5
0.5
0.5
0.5
0.5
0.5
0.5
0.5
0.5
0.5
0.5
0.5
0.5
0.5
0.5
0.5
0.5
0.5
0.5
0.5
0.5
0.5
0.5
0.5
0.5
0.5
0.5
0.5
0.5
0.5
0.5
0.5
0.5
0.5
0.5
0.5
0.5
0.5
0.5
0.5
0.5
0.5
0.5
0.5
0.5
0.5
0.5
0.5
0.5
0.5
0.5
0.5
0.5
0.5
0.5
0.5
0.5
0.5
0.5
0.5
0.5
0.5
0.5
0.5
0.5
0.5
0.5
0.5
0.5
0.5
0.5
0.5
0.5
0.5
0.5
0.5
0.5
0.5
0.5
0.5
0.5
0.5
0.5
0.5
0.5
0.5
0.5
0.5
0.5
0.5
0.5
0.5
0.5
0.5
0.5
0.5
0.5
0.5
0.5
0.5
0.5
0.5
0.5
0.5
0.5
0.5
0.5
0.5
0.5
0.5
0.5
0.5
0.5
0.5
0.5
0.5
0.5
0.5
0.5
0.5
0.5
0.5
0.5
0.5
0.5
0.5
0.5
0.5
0.5
0.5
0.5
0.5
0.5
0.5
0.5
0.5
0.5
0.5
0.5
0.5
0.5
0.5
0.5
0.5
0.5
0.5
0.5
0.5
0.5
0.5
0.5
0.5
0.5
0.5
0.5
0.5
0.5
0.5
0.5
0.5
0.5
0.5
0.5
0.5
0.5
0.5
0.5
0.5
0.5
0.5
0.5
0.5
0.5
0.5
0.5
0.5
0.5
0.5
0.5
0.5
0.5
0.5
0.5
0.5
0.5
0.5
0.5
0.5
0.5
0.5
0.5
0.5
0.5
0.5
0.5
0.5
0.5
0.5
0.5
0.5
0.5
0.5
0.5
0.5
0.5
0.5
0.5
0.5
0.5
0.5
0.5
0.5
0.5
0.5
0.5
0.5
0.5
0.5
0.5
0.5
0.5
0.5
0.5
0.5
0.5
0.5
0.5
0.5
0.5
0.5
0.5
0.5
0.5
0.5
0.5
0.5
0.5
0.5
0.5
0.5
0.5
0.5
0.5
0.5
0.5
0.5
0.5
0.5
0.5
0.5
0.5
0.5
0.5
0.5
0.5
0.5
0.5
0.5
0.5
0.5
0.5
0.5
0.5
0.5
0.5
0.5
0.5
0.5
0.5
0.5
0.5
0.5
0.5
0.5
0.5
0.499999999999
0.499999999999
0.499999999999
0.499999999998
0.499999999998
0.499999999997
0.499999999996
0.499999999994
0.499999999992
0.499999999988
0.499999999983
0.499999999977
0.499999999968
0.499999999956
0.499999999939
0.499999999916
0.499999999884
0.499999999842
0.499999999783
0.499999999705
0.499999999599
0.499999999456
0.499999999264
0.499999999007
0.499999998664
0.499999998207
0.499999997601
0.499999996798
0.499999995737
0.499999994341
0.499999992506
0.499999990104
0.499999986967
0.499999982881
0.499999977574
0.499999970702
0.499999961826
0.499999950397
0.499999935719
0.499999916924
0.499999892925
0.499999862369
0.499999823574
0.499999774462
0.499999712466
0.499999634433
0.499999536498
0.499999413943
0.499999261024
0.499999070775
0.499998834777
0.499998542889
0.499998182941
0.499997740373
0.499997197839
0.499996534738
0.4999957267
0.499994744997
0.499993555894
0.499992119923
0.499990391088
0.499988315989
0.499985832873
0.499982870615
0.499979347616
0.49997517065
0.499970233642
0.499964416405
0.49995758334
0.499949582125
0.499940242397
0.499929374475
0.499916768115
0.499902191371
0.499885389547
0.499866084307
0.499843972964
0.499818727984
0.499789996741
0.499757401558
0.499720540058
0.49967898586
0.499632289634
0.499579980533
0.499521568013
0.499456544027
0.499384385603
0.499304557766
0.49921651679
0.499119713735
0.499013598221
0.49889762239
0.498771244989
0.498633935511
0.498485178321
0.498324476706
0.498151356769
0.497965371109
0.497766102217
0.497553165546
0.497326212194
0.497084931176
0.496829051248
0.496558342267
0.496272616088
0.495971726994
0.495655571676
0.49532408878
0.494977258056
0.494615099139
0.49423767001
0.493845065163
0.493437413545
0.493014876298
0.492577644353
0.492125935926
0.491659993946
0.491180083463
0.490686489064
0.490179512332
0.48965946937
0.489126688424
0.488581507599
0.488024272716
0.487455335292
0.486875050663
0.486283776255
0.485681870006
0.485069688925
0.484447587808
0.483815918085
0.483175026806
0.482525255756
0.481866940688
0.481200410674
0.480525987556
0.479843985501
0.479154710636
0.478458460775
0.477755525207
0.477046184562
0.476330710723
0.475609366804
0.474882407159
0.474150077443
0.473412614699
0.472670247479
0.47192319599
0.471171672254
0.470415880298
0.469656016347
0.468892269029
0.468124819596
0.467353842143
0.466579503831
0.465801965122
0.465021380003
0.464237896212
0.46345165547
0.462662793701
0.461871441252
0.461077723108
0.460281759106
0.459483664139
0.458683548355
0.457881517354
0.457077672373
0.456272110472
0.455464924708
0.454656204305
0.453846034819
0.453034498293
0.45222167341
0.451407635642
0.450592457381
0.449776208082
0.448958954386
0.448140760246
0.447321687041
0.446501793693
0.44568113677
0.444859770596
0.444037747339
0.443215117118
0.44239192808
0.441568226495
0.440744056835
0.43991946185
0.439094482646
0.438269158754
0.4374435282
0.436617627567
0.43579149206
0.434965155563
0.434138650697
0.43331200887
0.432485260335
0.431658434232
0.430831558638
0.430004660613
0.42917776624
0.428350900665
0.427524088138
0.426697352051
0.425870714969
0.425044198666
0.42421782416
0.423391611738
0.422565580989
0.421739750833
0.420914139546
0.420088764784
0.41926364361
0.418438792518
0.417614227453
0.416789963832
0.415966016569
0.415142400089
0.414319128349
0.413496214857
0.412673672688
0.4118515145
0.411029752549
0.410208398708
0.409387464476
0.408566960995
0.407746899063
0.406927289146
0.406108141389
0.405289465631
0.404471271412
0.403653567986
0.402836364333
0.402019669164
0.401203490934
0.400387837851
0.399572717883
0.398758138768
0.397944108019
0.397130632937
0.396317720614
0.39550537794
0.394693611613
0.393882428142
0.393071833856
0.39226183491
0.391452437288
0.390643646812
0.389835469143
0.389027909793
0.388220974124
0.387414667354
0.386608994563
0.385803960697
0.384999570573
0.384195828882
0.383392740191
0.382590308951
0.3817885395
0.380987436063
0.380187002757
0.379387243599
0.378588162501
0.377789763281
0.376992049658
0.376195025262
0.375398693635
0.37460305823
0.373808122416
0.373013889484
0.372220362642
0.371427545023
0.370635439687
0.369844049619
0.369053377737
0.368263426887
0.367474199853
0.366685699351
0.365897928037
0.365110888505
0.364324583292
0.363539014874
0.362754185676
0.361970098064
0.361186754355
0.360404156813
0.359622307652
0.358841209039
0.358060863092
0.357281271885
0.356502437446
0.355724361761
0.354947046771
0.354170494379
0.353394706446
0.352619684795
0.35184543121
0.351071947439
0.350299235194
0.349527296151
0.348756131953
0.347985744208
0.347216134494
0.346447304355
0.345679255307
0.344911988833
0.344145506388
0.343379809399
0.342614899265
0.341850777358
0.341087445023
0.340324903579
0.339563154321
0.338802198519
0.33804203742
0.337282672245
0.336524104195
0.335766334448
0.33500936416
0.334253194466
0.333497826482
0.332743261301
0.331989499998
0.331236543629
0.330484393232
0.329733049825
0.328982514409
0.328232787968
0.327483871469
0.326735765862
0.325988472081
0.325241991044
0.324496323655
0.323751470801
0.323007433355
0.322264212177
0.321521808111
0.320780221989
0.320039454628
0.319299506833
0.318560379396
0.317822073098
0.317084588705
0.316347926974
0.315612088648
0.31487707446
0.314142885133
0.313409521377
0.312676983893
0.311945273371
0.311214390491
0.310484335924
0.309755110331
0.309026714363
0.308299148663
0.307572413864
0.306846510591
0.30612143946
0.30539720108
0.304673796051
0.303951224964
0.303229488405
0.30250858695
0.301788521168
0.301069291624
0.300350898871
0.299633343459
0.29891662593
0.29820074682
0.297485706658
0.296771505968
0.296058145267
0.295345625066
0.294633945871
0.293923108183
0.293213112497
0.292503959303
0.291795649085
0.291088182324
0.290381559493
0.289675781065
0.288970847504
0.288266759272
0.287563516826
0.28686112062
0.286159571102
0.285458868718
0.284759013909
0.284060007112
0.283361848764
0.282664539293
0.281968079128
0.281272468693
0.280577708411
0.279883798698
0.279190739971
0.278498532644
0.277807177125
0.277116673824
0.276427023146
0.275738225493
0.275050281268
0.274363190868
0.273676954692
0.272991573134
0.272307046588
0.271623375445
0.270940560097
0.270258600931
0.269577498336
0.268897252698
0.268217864401
0.267539333831
0.26686166137
0.2661848474
0.265508892304
0.264833796462
0.264159560255
0.263486184064
0.262813668267
0.262142013245
0.261471219376
0.260801287041
0.260132216619
0.259464008489
0.258796663032
0.258130180628
0.257464561658
0.256799806503
0.256135915546
0.255472889169
0.254810727757
0.254149431694
0.253489001367
0.252829437162
0.252170739469
0.251512908678
0.25085594518
0.250199849368
0.249544621638
0.248890262388
0.248236772015
0.247584150921
0.24693239951
0.246281518187
0.245631507361
0.244982367444
0.244334098847
0.243686701989
0.243040177289
0.242394525169
0.241749746056
0.241105840379
0.240462808571
0.239820651068
0.239179368311
0.238538960745
0.237899428817
0.237260772981
0.236622993694
0.235986091417
0.235350066617
0.234714919765
0.234080651337
0.233447261815
0.232814751686
0.232183121441
0.23155237158
0.230922502606
0.230293515029
0.229665409365
0.229038186137
0.228411845874
0.227786389114
0.227161816398
0.226538128277
0.225915325309
0.22529340806
0.224672377103
0.22405223302
0.2234329764
0.222814607843
0.222197127955
0.221580537352
0.220964836661
0.220350026517
0.219736107564
0.219123080458
0.218510945865
0.21789970446
0.217289356931
0.216679903977
0.216071346307
0.215463684644
0.214856919721
0.214251052285
0.213646083097
0.213042012927
0.212438842564
0.211836572807
0.211235204471
0.210634738385
0.210035175394
0.209436516357
0.208838762151
0.208241913668
0.207645971817
0.207050937525
0.206456811735
0.205863595409
0.205271289529
0.204679895095
0.204089413126
0.203499844663
0.202911190768
0.202323452521
0.201736631027
0.201150727414
0.200565742831
0.199981678453
0.199398535477
0.198816315126
0.198235018651
0.197654647327
0.197075202456
0.196496685371
0.195919097431
0.195342440025
0.194766714574
0.194191922528
0.193618065372
0.193045144621
0.192473161827
0.191902118574
0.191332016484
0.190762857216
0.190194642466
0.189627373969
0.189061053501
0.18849568288
0.187931263966
0.187367798661
0.186805288915
0.186243736723
0.185683144127
0.18512351322
0.184564846145
0.184007145095
0.183450412321
0.182894650124
0.182339860866
0.181786046966
0.181233210903
0.180681355219
0.180130482518
0.179580595473
0.179031696824
0.178483789378
0.177936876018
0.1773909597
0.176846043455
0.176302130397
0.175759223716
0.175217326691
0.174676442685
0.17413657515
0.173597727631
0.173059903768
0.172523107299
0.171987342062
0.171452612001
0.170918921166
0.17038627372
0.169854673937
0.169324126214
0.168794635066
0.168266205136
0.167738841198
0.167212548159
0.166687331065
0.166163195105
0.165640145617
0.165118188091
0.164597328176
0.164077571683
0.163558924593
0.16304139306
0.16252498342
0.162009702192
0.161495556091
0.160982552029
0.160470697123
0.159959998704
0.159450464322
0.158942101755
0.158434919016
0.157928924361
0.157424126297
0.156920533591
0.15641815528
0.155917000679
0.15541707939
0.154918401315
0.154420976662
0.153924815958
0.153429930063
0.152936330174
0.152444027845
0.151953034995
0.151463363919
0.150975027306
0.15048803825
0.150002410264
0.149518157294
0.149035293738
0.148553834456
0.14807379479
0.14759519058
0.147118038181
0.146642354481
0.146168156917
0.145695463501
0.145224292831
0.144754664118
0.1442865972
0.143820112573
0.143355231404
0.14289197556
0.142430367626
0.141970430936
0.141512189592
0.14105566849
0.140600893349
0.140147890736
0.139696688093
0.139247313765
0.138799797028
0.138354168118
0.137910458263
0.137468699709
0.137028925753
0.136591170773
0.136155470258
0.135721860842
0.135290380333
0.134861067743
0.134433963324
0.134009108597
0.133586546382
0.133166320828
0.132748477446
0.132333063135
0.131920126215
0.131509716445
0.131101885059
0.130696684783
0.130294169859
0.129894396066
0.129497420733
0.12910330276
0.128712102621
0.128323882379
0.127938705683
0.127556637768
0.127177745449
0.126802097111
0.126429762686
0.12606081363
0.125695322891
0.125333364868
0.124975015362
0.124620351517
0.124269451755
0.123922395692
0.123579264053
0.123240138568
0.122905101857
0.122574237304
0.122247628915
0.121925361159
0.121607518804
0.121294186724
0.120985449702
0.120681392208
0.120382098169
0.120087650717
0.119798131923
0.119513622513
0.119234201573
0.118959946238
0.118690931362
0.118427229183
0.118168908971
0.117916036668
0.117668674522
0.117426880711
0.117190708968
0.1169602082
0.116735422114
0.116516388847
0.116303140601
0.116095703293
0.115894096223
0.115698331757
0.115508415033
0.115324343701
0.115146107687
0.114973688993
0.11480706154
0.114646191047
0.11449103496
0.114341542421
0.114197654297
0.11405930325
0.113926413864
0.113798902828
0.113676679165
0.113559644515
0.113447693474
0.113340713974
0.113238587709
0.113141190609
0.113048393343
0.112960061863
0.112876057971
0.112796239906
0.11272046296
0.112648580088
0.112580442531
0.112515900443
0.112454803498
0.11239700149
0.112342344918
0.11229068554
0.112241876901
0.112195774831
0.112152237904
0.112111127855
0.112072309966
0.112035653395
0.112001031475
0.111968321957
0.111937407216
0.111908174411
0.111880515605
0.111854327844
0.111829513193
0.111805978745
0.111783636592
0.111762403762
0.111742202141
0.111722958353
0.111704603641
0.111687073709
0.111670308564
0.111654252338
0.111638853107
0.111624062697
0.11160983649
0.111596133231
0.111582914823
0.111570146142
0.111557794835
0.111545831142
0.111534227708
0.111522959409
0.111512003189
0.111501337895
0.111490944127
0.111480804095
0.111470901487
0.111461221339
0.111451749921
0.111442474624
0.111433383864
0.111424466987
0.111415714181
0.111407116402
0.111398665296
0.111390353141
0.111382172781
0.111374117576
0.11136618135
0.111358358351
0.111350643206
0.111343030887
0.111335516679
0.111328096152
0.111320765131
0.111313519678
0.111306356064
0.111299270758
0.111292260405
0.11128532181
0.111278451929
0.111271647853
0.111264906797
0.111258226094
0.111251603182
0.111245035597
0.111238520965
0.111232057001
0.111225641493
0.111219272306
0.111212947373
0.111206664689
0.11120042231
0.111194218348
0.111188050965
0.111181918375
0.111175818836
0.111169750651
0.111163712162
0.111157701749
0.111151717828
0.111145758851
0.111139823299
0.111133909682
0.111128016541
0.111122142441
0.111116285971
0.111110445744
0.111104620394
0.111098808575
0.111093008959
0.111087220236
0.111081441111
0.111075670304
0.111069906548
0.11106414859
0.111058395184
0.111052645099
0.111046897108
0.111041149996
0.111035402553
0.111029653572
0.111023901856
0.111018146208
0.111012385434
0.111006618343
0.111000843744
0.110995060446
0.110989267256
0.110983462982
0.110977646425
0.110971816385
0.110965971654
0.110960111021
0.110954233268
0.110948337167
0.110942421482
0.110936484968
0.110930526367
0.110924544409
0.110918537809
0.110912505262
0.11090644544
0.110900356981
0.110894238465
0.110888088382
0.110881905049
0.110875686461
0.110869429983
0.110863131737
0.11085678538
0.11085037964
0.110843893391
0.110837285771
0.110830476372
0.110823305524
0.11081545469
0.110806286906
0.110794527067
0.110777621556
0.110750456568
0.110702796639
0.110614179877
0.110443801634
0.110110689969
0.10945572186
0.108172105839
0.105689823744
0.101022232835
0.0926803180871
0.0789917809969
0.0594084725599
0.0369006281141
0.0188872121909
0.0112341297554
0.0100569831471
0.0100014317265
0.0100000339698
0.0100000008052
0.0100000000191
0.0100000000005
0.01
0.01
0.01
0.01
0.01
0.01
0.01
0.01
0.01
0.01
0.01
0.01
0.01
0.01
0.01
0.01
0.01
0.01
0.01
0.01
0.01
0.01
0.01
0.01
0.01
0.01
0.01
0.01
0.01
0.01
0.01
0.01
0.01
0.01
0.01
0.01
0.01
0.01
0.01
0.01
0.01
0.01
0.01
0.01
0.01
0.01
0.01
0.01
0.01
0.01
0.01
0.01
0.01
0.01
0.01
0.01
0.01
0.01
0.01
0.01
0.01
0.01
0.01
0.01
0.01
0.01
0.01
0.01
0.01
0.01
0.01
0.01
0.01
0.01
0.01
0.01
0.01
0.01
0.01
0.01
0.01
0.01
0.01
0.01
0.01
0.01
0.01
0.01
0.01
0.01
0.01
0.01
0.01
0.01
0.01
0.01
0.01
0.01
0.01
0.01
0.01
0.01
0.01
0.01
0.01
0.01
0.01
0.01
0.01
0.01
0.01
0.01
0.01
0.01
0.01
0.01
0.01
0.01
0.01
0.01
0.01
0.01
0.01
0.01
0.01
0.01
0.01
0.01
0.01
0.01
0.01
0.01
0.01
0.01
0.01
0.01
0.01
0.01
0.01
0.01
0.01
0.01
0.01
0.01
0.01
0.01
0.01
0.01
0.01
0.01
0.01
0.01
0.01
0.01
0.01
0.01
0.01
0.01
0.01
0.01
0.01
0.01
0.01
0.01
0.01
0.01
0.01
0.01
0.01
0.01
0.01
0.01
0.01
0.01
0.01
0.01
0.01
0.01
0.01
0.01
0.01
0.01
0.01
0.01
0.01
0.01
0.01
0.01
0.01
0.01
0.01
0.01
0.01
0.01
0.01
0.01
0.01
0.01
0.01
0.01
0.01
0.01
0.01
0.01
0.01
0.01
0.01
0.01
0.01
0.01
0.01
0.01
0.01
0.01
0.01
0.01
0.01
0.01
0.01
0.01
0.01
0.01
0.01
0.01
0.01
0.01
0.01
0.01
0.01
0.01
0.01
0.01
0.01
0.01
0.01
0.01
0.01
0.01
0.01
0.01
0.01
0.01
0.01
0.01
0.01
0.01
0.01
0.01
0.01
0.01
0.01
0.01
0.01
0.01
0.01
0.01
0.01
0.01
0.01
0.01
0.01
0.01
0.01
0.01
0.01
0.01
0.01
0.01
0.01
0.01
0.01
0.01
0.01
0.01
0.01
0.01
0.01
0.01
0.01
0.01
0.01
0.01
0.01
0.01
0.01
0.01
0.01
0.01
0.01
0.01
0.01
0.01
0.01
0.01
0.01
0.01
0.01
0.01
0.01
0.01
0.01
0.01
0.01
0.01
0.01
0.01
0.01
0.01
0.01
0.01
0.01
0.01
0.01
0.01
0.01
0.01
0.01
0.01
0.01
0.01
0.01
0.01
0.01
0.01
0.01
0.01
0.01
0.01
0.01
0.01
0.01
0.01
0.01
0.01
0.01
0.01
0.01
0.01
0.01
0.01
0.01
0.01
0.01
0.01
0.01
0.01
0.01
0.01
0.01
0.01
0.01
0.01
0.01
0.01
0.01
0.01
0.01
0.01
0.01
0.01
0.01
0.01
0.01
0.01
0.01
0.01
0.01
0.01
0.01
0.01
0.01
0.01
0.01
0.01
0.01
0.01
0.01
0.01
0.01
0.01
0.01
0.01
0.01
0.01
)
;

boundaryField
{
    inflow
    {
        type            zeroGradient;
    }
    outflow
    {
        type            zeroGradient;
    }
    sides
    {
        type            empty;
    }
    topAndBottom
    {
        type            empty;
    }
}


// ************************************************************************* //
