/*--------------------------------*- C++ -*----------------------------------*\
  =========                 |
  \\      /  F ield         | OpenFOAM: The Open Source CFD Toolbox
   \\    /   O peration     | Website:  https://openfoam.org
    \\  /    A nd           | Version:  13
     \\/     M anipulation  |
\*---------------------------------------------------------------------------*/
FoamFile
{
    format      ascii;
    class       volScalarField;
    location    "1";
    object      Q2;
}
// * * * * * * * * * * * * * * * * * * * * * * * * * * * * * * * * * * * * * //

dimensions      [];

internalField   nonuniform List<scalar> 
1600
(
0
0
0
0
0
0
0
0
0
0
0
0
0
0
0
0
0
0
0
0
0
0
0
0
0
0
0
0
0
0
0
0
0
0
0
0
0
0
0
0
0
0
0
0
0
0
0
0
0
0
0
0
0
0
0
0
0
0
0
0
0
0
0
0
0
0
0
0
0
0
0
0
0
0
0
0
0
0
0
0
0
0
0
0
0
0
0
0
0
0
0
0
0
0
0
0
0
0
0
0
0
0
0
0
0
0
0
0
0
0
0
0
0
0
0
0
0
0
0
0
0
0
0
0
0
0
0
0
0
0
0
0
0
0
0
0
0
0
0
0
0
0
0
0
0
0
0
0
0
0
0
0
0
0
0
0
0
0
0
0
0
0
0
0
0
0
0
0
0
0
0
0
0
0
0
0
0
0
0
0
0
0
0
0
0
0
0
0
0
0
0
0
0
0
0
0
0
0
0
0
0
0
0
0
0
0
0
0
0
0
0
0
0
0
0
0
0
0
0
0
0
0
0
0
0
0
0
0
0
0
0
0
0
0
0
0
0
0
0
0
0
0
0
0
0
0
0
0
0
0
0
0
0
0
0
0
0
0
0
0
0
0
0
0
0
0
0
0
0
0
0
0
0
0
0
0
0
0
0
0
0
0
0
0
0
0
0
0
0
3.9474718612e-17
2.23690505285e-16
5.92122995752e-16
1.11845692145e-15
1.60531923586e-15
2.14481747074e-15
2.72379374038e-15
3.27645704431e-15
3.86859848924e-15
4.46074356961e-15
5.01341750216e-15
5.61872790072e-15
6.1977255015e-15
6.76356842766e-15
7.35573149205e-15
7.96105641908e-15
8.7637589191e-15
9.98753079737e-15
1.17113246472e-14
1.43825244098e-14
1.84353586156e-14
2.44882738471e-14
3.33570958135e-14
4.64366205206e-14
6.56479772616e-14
9.35307531367e-14
1.33927216196e-13
1.92284966735e-13
2.76341180264e-13
3.97030542151e-13
5.69761612642e-13
8.16324816339e-13
1.16736622282e-12
1.66561139682e-12
2.3712208792e-12
3.36786941909e-12
4.77175954702e-12
6.74412212882e-12
9.50773029453e-12
1.33699531247e-11
1.87532307446e-11
2.62368920494e-11
3.66127494236e-11
5.09604838414e-11
7.0747833825e-11
9.79642728333e-11
1.35299228294e-10
1.86377816609e-10
2.56071831853e-10
3.50910397288e-10
4.79617991672e-10
6.53819207566e-10
8.88957020471e-10
1.20548750617e-09
1.63042773412e-09
2.19935463143e-09
2.95897863994e-09
3.97044563507e-09
5.31355878812e-09
7.09215993764e-09
9.44096328885e-09
1.25342053564e-08
1.65965554646e-08
2.19168284691e-08
2.88651600125e-08
3.79144413105e-08
4.96669727738e-08
6.48874868124e-08
8.45439110114e-08
1.09857499647e-07
1.42364250967e-07
1.83989865615e-07
2.37140877205e-07
3.0481500663e-07
3.90734264662e-07
4.99504840385e-07
6.36808374453e-07
8.09629819795e-07
1.02652772857e-06
1.29795347012e-06
1.63662656217e-06
2.05797397663e-06
2.58064193379e-06
3.22708930503e-06
4.0242722741e-06
5.0044303175e-06
6.20598382074e-06
7.6745536998e-06
9.46411319279e-06
1.16382814718e-05
1.42717678368e-05
1.74519739388e-05
2.12807596693e-05
2.58763760028e-05
3.1375565131e-05
3.79358246524e-05
4.57378283507e-05
5.49879912069e-05
6.59211607746e-05
7.8803410943e-05
9.39349075134e-05
0.000111652808039
0.000132334151189
0.000156398683698
0.000184311566001
0.0002165858912
0.000253784946375
0.000296524140822
0.000345472522793
0.000401353805264
0.000464946822247
0.000537085340711
0.000618657159282
0.00071060243382
0.000813911181713
0.000929619931128
0.00105880749839
0.00120258989569
0.00136211439194
0.00153855277133
0.00173309385595
0.00194693538048
0.00218127532681
0.00243730284462
0.00271618889884
0.00301907679625
0.00334707275096
0.00370123665069
0.00408257318438
0.00449202348415
0.00493045742399
0.00539866670183
0.00589735881302
0.0064271520017
0.00698857125329
0.00758204536662
0.0082079051202
0.00886638252289
0.00955761111748
0.0102816272852
0.011038372482
0.0118276963233
0.0126493604224
0.0135030428798
0.0143883433179
0.0153047883507
0.0162518373834
0.0172288886377
0.0182352853054
0.0192703217399
0.0203332496057
0.0214232839116
0.022539608867
0.0236813835082
0.0248477470529
0.0260378239484
0.0272507285907
0.0284855696964
0.0297414543194
0.031017491509
0.0323127956123
0.0336264892275
0.0349577058208
0.0363055920183
0.0376693095927
0.0390480371603
0.0404409716081
0.0418473292728
0.0432663468888
0.0446972823274
0.0461394151466
0.0475920469693
0.0490545017086
0.0505261256588
0.0520062874651
0.0534943779907
0.0549898100923
0.0564920183188
0.058000458544
0.0595146075439
0.061033962529
0.0625580406397
0.0640863784124
0.0656185312239
0.0671540727194
0.0686925942304
0.0702337041857
0.0717770275214
0.073322205092
0.0748688930858
0.0764167624486
0.0779654983148
0.0795147994513
0.0810643777126
0.0826139575102
0.0841632752961
0.0857120790616
0.087260127852
0.0888071912971
0.0903530491576
0.0918974908884
0.0934403152176
0.0949813297417
0.0965203505365
0.0980572017839
0.0995917154139
0.101123730761
0.102653094235
0.104179659009
0.105703284714
0.107223837156
0.108741188035
0.11025521469
0.11176579984
0.11327283135
0.114776202
0.116275809268
0.11777155512
0.119263345813
0.120751091705
0.122234707075
0.123714109949
0.125189221938
0.12665996808
0.128126276693
0.129588079228
0.131045310139
0.13249790675
0.133945809133
0.13538895999
0.13682730454
0.138260790415
0.139689367556
0.141112988115
0.142531606364
0.143945178606
0.14535366309
0.146757019932
0.148155211036
0.149548200023
0.150935952159
0.152318434289
0.153695614773
0.155067463428
0.156433951463
0.157795051431
0.15915073717
0.160500983756
0.161845767454
0.163185065668
0.164518856903
0.165847120717
0.167169837682
0.168486989348
0.169798558202
0.171104527634
0.172404881905
0.17369960611
0.174988686152
0.176272108709
0.177549861204
0.178821931783
0.180088309282
0.181348983207
0.18260394371
0.183853181559
0.185096688127
0.18633445536
0.187566475762
0.188792742377
0.190013248765
0.191227988988
0.192436957591
0.193640149587
0.194837560438
0.196029186043
0.197215022721
0.198395067198
0.199569316593
0.200737768403
0.201900420495
0.20305727109
0.204208318752
0.205353562377
0.206493001184
0.207626634703
0.208754462762
0.209876485485
0.210992703274
0.212103116808
0.213207727028
0.214306535133
0.215399542568
0.216486751022
0.217568162414
0.218643778892
0.219713602821
0.22077763678
0.221835883553
0.222888346125
0.223935027674
0.224975931566
0.226011061351
0.227040420755
0.228064013676
0.229081844179
0.230093916492
0.231100235
0.232100804241
0.2330956289
0.234084713809
0.235068063939
0.236045684396
0.237017580421
0.237983757381
0.23894422077
0.239898976204
0.240848029416
0.241791386255
0.242729052682
0.243661034767
0.244587338684
0.245507970714
0.246422937235
0.247332244724
0.248235899754
0.249133908989
0.250026279185
0.250913017184
0.251794129915
0.25266962439
0.253539507701
0.25440378702
0.255262469598
0.256115562758
0.256963073898
0.257805010488
0.258641380065
0.259472190236
0.260297448675
0.261117163119
0.261931341367
0.262739991283
0.263543120787
0.264340737861
0.265132850541
0.265919466921
0.266700595147
0.267476243422
0.268246419997
0.269011133176
0.26977039131
0.270524202801
0.271272576098
0.272015519693
0.272753042126
0.273485151981
0.274211857883
0.2749331685
0.275649092543
0.276359638759
0.277064815938
0.277764632907
0.27845909853
0.279148221708
0.27983201138
0.280510476515
0.281183626123
0.281851469242
0.282514014946
0.283171272341
0.283823250562
0.284469958779
0.285111406188
0.285747602017
0.286378555524
0.287004275992
0.287624772734
0.288240055091
0.288850132428
0.289455014139
0.290054709641
0.290649228377
0.291238579817
0.291822773451
0.292401818796
0.29297572539
0.293544502795
0.294108160594
0.294666708394
0.295220155822
0.295768512526
0.296311788174
0.296849992456
0.297383135081
0.297911225778
0.298434274294
0.298952290396
0.299465283869
0.299973264516
0.300476242159
0.300974226636
0.301467227803
0.301955255534
0.302438319717
0.302916430258
0.303389597079
0.303857830119
0.304321139331
0.304779534683
0.305233026159
0.305681623758
0.306125337494
0.306564177393
0.306998153498
0.307427275865
0.307851554563
0.308270999675
0.308685621297
0.30909542954
0.309500434525
0.309900646389
0.310296075279
0.310686731355
0.311072624791
0.31145376577
0.311830164491
0.312201831161
0.312568776
0.312931009242
0.313288541128
0.313641381913
0.313989541864
0.314333031256
0.314671860377
0.315006039525
0.315335579011
0.315660489152
0.315980780279
0.316296462733
0.316607546864
0.316914043033
0.317215961611
0.317513312979
0.317806107529
0.31809435566
0.318378067783
0.318657254319
0.318931925697
0.319202092358
0.319467764751
0.319728953333
0.319985668574
0.32023792095
0.320485720949
0.320729079067
0.320968005809
0.32120251169
0.321432607234
0.321658302974
0.321879609453
0.322096537223
0.322309096843
0.322517298885
0.322721153927
0.322920672557
0.323115865373
0.323306742982
0.323493315998
0.323675595048
0.323853590766
0.324027313794
0.324196774785
0.324361984402
0.324522953316
0.324679692207
0.324832211765
0.32498052269
0.325124635691
0.325264561486
0.325400310804
0.325531894382
0.325659322968
0.325782607319
0.325901758202
0.326016786395
0.326127702685
0.326234517869
0.326337242755
0.326435888161
0.326530464915
0.326620983856
0.326707455834
0.326789891709
0.326868302352
0.326942698646
0.327013091484
0.327079491771
0.327141910424
0.32720035837
0.327254846548
0.327305385911
0.327351987422
0.327394662057
0.327433420805
0.327468274666
0.327499234655
0.327526311799
0.327549517139
0.327568861727
0.327584356632
0.327596012935
0.327603841733
0.327607854135
0.327608061266
0.327604474267
0.327597104294
0.327585962516
0.32757106012
0.327552408311
0.327530018307
0.327503901344
0.327474068677
0.327440531576
0.32740330133
0.327362389246
0.327317806651
0.32726956489
0.327217675326
0.327162149344
0.327102998349
0.327040233766
0.326973867042
0.326903909645
0.326830373066
0.326753268819
0.326672608439
0.326588403488
0.326500665551
0.326409406237
0.326314637182
0.326216370047
0.326114616521
0.32600938832
0.325900697187
0.325788554896
0.32567297325
0.325553964081
0.325431539253
0.325305710662
0.325176490237
0.32504388994
0.324907921767
0.324768597752
0.324625929961
0.3244799305
0.324330611514
0.324177985185
0.324022063736
0.323862859433
0.323700384583
0.323534651537
0.32336567269
0.323193460486
0.323018027413
0.32283938601
0.322657548866
0.32247252862
0.322284337966
0.322092989652
0.32189849648
0.321700871314
0.321500127073
0.32129627674
0.32108933336
0.320879310042
0.320666219964
0.320450076369
0.320230892573
0.320008681966
0.319783458011
0.319555234248
0.319324024297
0.319089841862
0.318852700728
0.31861261477
0.318369597952
0.318123664329
0.317874828054
0.317623103375
0.317368504646
0.317111046321
0.316850742966
0.316587609255
0.316321659979
0.316052910047
0.31578137449
0.315507068467
0.315230007264
0.314950206305
0.314667681152
0.31438244751
0.314094521232
0.313803918326
0.313510654955
0.313214747448
0.312916212303
0.312615066191
0.312311325964
0.31200500866
0.311696131511
0.311384711946
0.311070767603
0.31075431633
0.310435376198
0.310113965502
0.309790102778
0.309463806801
0.3091350966
0.308803991467
0.30847051096
0.308134674921
0.307796503478
0.307456017059
0.307113236405
0.306768182573
0.306420876957
0.306071341293
0.305719597672
0.305365668558
0.305009576795
0.304651345622
0.30429099869
0.303928560075
0.303564054293
0.303197506315
0.302828941587
0.302458386043
0.302085866127
0.301711408807
0.301335041596
0.300956792574
0.300576690406
0.300194764364
0.299811044348
0.299425560912
0.299038345286
0.2986494294
0.29825884591
0.297866628224
0.297472810533
0.297077427834
0.296680515964
0.296282111626
0.295882252424
0.295480976896
0.295078324544
0.294674335872
0.294269052419
0.2938625168
0.293454772741
0.293045865117
0.292635839999
0.292224744689
0.291812627765
0.291399539126
0.290985530038
0.290570653179
0.290154962685
0.289738514203
0.289321364937
0.288903573702
0.288485200971
0.288066308936
0.287646961551
0.287227224596
0.286807165726
0.286386854528
0.28596636258
0.2855457635
0.28512513301
0.284704548988
0.284284091524
0.283863842974
0.283443888017
0.283024313705
0.282605209517
0.282186667404
0.281768781842
0.281351649872
0.28093537114
0.28052004794
0.280105785239
0.279692690712
0.279280874759
0.278870450525
0.278461533904
0.278054243544
0.277648700838
0.277245029904
0.276843357562
0.276443813289
0.276046529171
0.275651639835
0.27525928237
0.274869596231
0.274482723125
0.274098806884
0.273717993311
0.273340430012
0.272966266206
0.272595652515
0.272228740721
0.271865683516
0.271506634211
0.271151746432
0.270801173785
0.270455069495
0.270113586026
0.269776874665
0.269445085092
0.26911836492
0.268796859216
0.268480709995
0.268170055701
0.267865030671
0.267565764575
0.267272381862
0.266985001179
0.266703734798
0.266428688043
0.266159958716
0.265897636535
0.265641802592
0.265392528823
0.265149877511
0.264913900818
0.264684640354
0.264462126792
0.264246379531
0.264037406412
0.263835203493
0.263639754894
0.2634510327
0.263268996945
0.263093595661
0.26292476501
0.26276242949
0.262606502211
0.262456885261
0.262313470125
0.262176138197
0.262044761336
0.261919202501
0.261799316429
0.261684950369
0.261575944857
0.261472134519
0.261373348907
0.261279413347
0.261190149798
0.261105377711
0.261024914878
0.260948578263
0.260876184817
0.260807552248
0.260742499769
0.260680848786
0.260622423552
0.26056705176
0.260514565082
0.260464799654
0.260417596494
0.260372801869
0.260330267594
0.260289851279
0.260251416518
0.260214833017
0.260179976682
0.260146729644
0.260114980253
0.260084623022
0.260055558538
0.260027693337
0.260000939755
0.259975215747
0.259950444697
0.259926555199
0.259903480831
0.259881159922
0.259859535306
0.25983855408
0.259818167353
0.259798330002
0.259779000434
0.259760140345
0.259741714493
0.259723690473
0.259706038511
0.259688731254
0.259671743584
0.259655052428
0.259638636596
0.259622476614
0.259606554576
0.259590854008
0.259575359733
0.25956005776
0.259544935168
0.259529980008
0.259515181213
0.259500528511
0.259486012352
0.259471623835
0.259457354647
0.25944319701
0.259429143624
0.259415187625
0.259401322537
0.259387542242
0.259373840942
0.259360213133
0.259346653571
0.259333157254
0.259319719399
0.259306335418
0.259293000907
0.259279711624
0.259266463481
0.259253252523
0.259240074925
0.259226926977
0.259213805074
0.259200705708
0.259187625464
0.259174561004
0.259161509071
0.259148466476
0.259135430092
0.259122396854
0.25910936375
0.259096327818
0.259083286142
0.259070235846
0.259057174093
0.259044098081
0.259031005038
0.259017892222
0.259004756913
0.258991596416
0.258978408053
0.258965189165
0.258951937104
0.258938649237
0.258925322939
0.25891195559
0.258898544578
0.25888508729
0.258871581116
0.258858023442
0.258844411651
0.258830743119
0.258817015213
0.258803225292
0.258789370699
0.258775448767
0.258761456807
0.258747392117
0.258733251969
0.258719033616
0.258704734284
0.258690351174
0.258675881455
0.258661322268
0.258646670719
0.258631923878
0.258617078778
0.258602132412
0.258587081728
0.258571923632
0.258556654983
0.258541272586
0.258525773198
0.258510153515
0.258494410179
0.258478539762
0.258462538769
0.258446403621
0.258430130639
0.258413716007
0.258397155709
0.258380445394
0.258363580121
0.25834655384
0.258329358364
0.258311981304
0.25829440193
0.258276582886
0.258258453564
0.258239876785
0.258220581991
0.258200031322
0.258177151165
0.258149794146
0.258113661173
0.258060142677
0.257971999273
0.257814734316
0.257519419857
0.256948739674
0.255830753122
0.253633203211
0.249338228509
0.241086049053
0.225769802332
0.199068703264
0.15720610309
0.101944310521
0.046587218528
0.0113088032183
0.00087171315524
1.9748670575e-05
4.49219122652e-07
1.06400636739e-08
2.52204198682e-10
5.97843810446e-12
1.41716609392e-13
3.35923277058e-15
7.95983786308e-17
1.86965263837e-18
2.56996675014e-20
0
0
0
0
0
0
0
0
0
0
0
0
0
0
0
0
0
0
0
0
0
0
0
0
0
0
0
0
0
0
0
0
0
0
0
0
0
0
0
0
0
0
0
0
0
0
0
0
0
0
0
0
0
0
0
0
0
0
0
0
0
0
0
0
0
0
0
0
0
0
0
0
0
0
0
0
0
0
0
0
0
0
0
0
0
0
0
0
0
0
0
0
0
0
0
0
0
0
0
0
0
0
0
0
0
0
0
0
0
0
0
0
0
0
0
0
0
0
0
0
0
0
0
0
0
0
0
0
0
0
0
0
0
0
0
0
0
0
0
0
0
0
0
0
0
0
0
0
0
0
0
0
0
0
0
0
0
0
0
0
0
0
0
0
0
0
0
0
0
0
0
0
0
0
0
0
0
0
0
0
0
0
0
0
0
0
0
0
0
0
0
0
0
0
0
0
0
0
0
0
0
0
0
0
0
0
0
0
0
0
0
0
0
0
0
0
0
0
0
0
0
0
0
0
0
0
0
0
0
0
0
0
0
0
0
0
0
0
0
0
0
0
0
0
0
0
0
0
0
0
0
0
0
0
0
0
0
0
0
0
0
0
0
0
0
0
0
0
0
0
0
0
0
0
0
0
0
0
0
0
0
0
0
0
0
0
0
0
0
0
0
0
0
0
0
0
0
0
0
0
0
0
0
0
0
0
0
0
0
0
0
0
0
0
0
0
0
0
0
0
0
0
0
0
0
0
0
0
0
0
0
0
0
0
0
0
0
0
0
0
0
0
0
0
0
0
0
0
0
0
0
0
0
0
0
0
0
0
0
0
0
0
0
0
0
0
0
0
0
0
0
0
0
0
0
0
0
0
0
0
)
;

boundaryField
{
    inflow
    {
        type            zeroGradient;
    }
    outflow
    {
        type            zeroGradient;
    }
    sides
    {
        type            empty;
    }
    topAndBottom
    {
        type            empty;
    }
}


// ************************************************************************* //
