/*--------------------------------*- C++ -*----------------------------------*\
  =========                 |
  \\      /  F ield         | OpenFOAM: The Open Source CFD Toolbox
   \\    /   O peration     | Website:  https://openfoam.org
    \\  /    A nd           | Version:  13
     \\/     M anipulation  |
\*---------------------------------------------------------------------------*/
FoamFile
{
    format      ascii;
    class       surfaceScalarField;
    location    "1";
    object      Dp1;
}
// * * * * * * * * * * * * * * * * * * * * * * * * * * * * * * * * * * * * * //

dimensions      [0 3 -1 0 0 0 0];

internalField   nonuniform List<scalar> 
799
(
0
0
0
0
0
0
0
0
0
0
0
0
0
0
0
0
0
0
0
0
0
0
0
0
0
0
0
0
0
0
0
0
0
0
0
0
0
0
0
0
0
0
0
0
0
0
0
0
0
0
0
0
0
0
0
0
0
0
0
0
0
0
0
0
0
0
0
0
0
0
0
0
0
0
0
0
0
0
0
0
0
0
0
0
0
0
0
0
0
0
0
0
0
0
0
0
0
0
0
0
0
0
0
0
0
0
0
0
0
0
0
0
0
-2.63845171729e-17
-2.06586753856e-16
-6.81233775673e-16
-1.17806134078e-15
-1.72766858458e-15
-2.1741334785e-15
-2.74144587582e-15
-3.75703046279e-15
-5.52431629212e-15
-8.581816437e-15
-1.38572288582e-14
-2.29199220702e-14
-3.79902076403e-14
-6.35057400439e-14
-1.06052502007e-13
-1.7711531466e-13
-2.94440234206e-13
-4.87530716612e-13
-8.03923866657e-13
-1.31978592921e-12
-2.15657900961e-12
-3.50739975694e-12
-5.67817737819e-12
-9.14917451364e-12
-1.46724198383e-11
-2.34189366829e-11
-3.72014564616e-11
-5.8813932862e-11
-9.25383082183e-11
-1.44902379401e-10
-2.25806946889e-10
-3.50187123902e-10
-5.40452994858e-10
-8.30049708883e-10
-1.26862225168e-09
-1.92946259459e-09
-2.92018008642e-09
-4.39790362331e-09
-6.59079719426e-09
-9.82833129161e-09
-1.45835917597e-08
-2.1532048808e-08
-3.1632648499e-08
-4.62389785504e-08
-6.72506465972e-08
-9.73180217132e-08
-1.40117250875e-07
-2.00717096199e-07
-2.86064770049e-07
-4.05624714579e-07
-5.7221227503e-07
-8.03073521927e-07
-1.12127310975e-06
-1.55746393939e-06
-2.15212534495e-06
-2.95837020233e-06
-4.0454352531e-06
-5.50298227662e-06
-7.44634953126e-06
-1.00229017821e-05
-1.34196316517e-05
-1.7872163024e-05
-2.36752966414e-05
-3.11952164936e-05
-4.08834406952e-05
-5.32925499983e-05
-6.90936589748e-05
-8.90955080021e-05
-0.000114264948246
-0.000145748468055
-0.000184894270478
-0.000233274262984
-0.000292705169253
-0.000365267828663
-0.000453323623661
-0.000559526881835
-0.000686832052471
-0.000838494470231
-0.00101806360342
-0.00122936784918
-0.00147649018629
-0.0017637343243
-0.00209558138457
-0.00247663759568
-0.00291157395571
-0.00340505927692
-0.00396168844769
-0.0045859080899
-0.00528194202563
-0.00605371907238
-0.0069048056489
-0.00783834549287
-0.00885700847932
-0.00996295010749
-0.0111577827263
-0.0124425590309
-0.0138177678236
-0.0152833415311
-0.0168386745276
-0.0184826509668
-0.0202136805737
-0.0220297407002
-0.0239284229046
-0.0259069823562
-0.0279623884814
-0.0300913754371
-0.0322904912042
-0.0345561443152
-0.0368846474591
-0.0392722574238
-0.0417152110337
-0.0442097569192
-0.0467521830964
-0.0493388404616
-0.0519661623884
-0.054630680689
-0.0573290382401
-0.0600579986006
-0.0628144529572
-0.0655954247303
-0.068398072162
-0.0712196891882
-0.0740577048722
-0.0769096816553
-0.0797733126506
-0.0826464181799
-0.0855269417296
-0.088412945476
-0.0913026055093
-0.094194206864
-0.0970861384467
-0.0999768879359
-0.102865036713
-0.105749254874
-0.108628296358
-0.111500994224
-0.114366256093
-0.117223059772
-0.120070449076
-0.122907529841
-0.125733466141
-0.128547476703
-0.13134883152
-0.134136848652
-0.136910891218
-0.139670364567
-0.142414713614
-0.145143420351
-0.147856001506
-0.150552006355
-0.153231014673
-0.155892634811
-0.158536501912
-0.161162276228
-0.163769641557
-0.166358303779
-0.16892798949
-0.171478444725
-0.174009433765
-0.176520738022
-0.179012155003
-0.181483497331
-0.183934591843
-0.186365278739
-0.188775410787
-0.191164852584
-0.19353347986
-0.195881178832
-0.198207845597
-0.200513385559
-0.202797712906
-0.205060750105
-0.207302427437
-0.209522682562
-0.21172146011
-0.213898711292
-0.216054393544
-0.218188470188
-0.220300910113
-0.222391687477
-0.22446078143
-0.226508175847
-0.22853385908
-0.230537823731
-0.232520066424
-0.234480587607
-0.236419391354
-0.238336485182
-0.240231879878
-0.24210558934
-0.243957630418
-0.245788022776
-0.24759678875
-0.249383953223
-0.251149543498
-0.25289358919
-0.254616122114
-0.256317176178
-0.257996787294
-0.259654993279
-0.261291833771
-0.262907350147
-0.264501585444
-0.266074584283
-0.267626392802
-0.269157058589
-0.270666630617
-0.272155159185
-0.273622695862
-0.275069293431
-0.276495005842
-0.277899888159
-0.279283996514
-0.280647388067
-0.28199012096
-0.283312254279
-0.284613848017
-0.285894963037
-0.287155661037
-0.288396004521
-0.289616056764
-0.290815881783
-0.291995544314
-0.293155109778
-0.294294644259
-0.295414214484
-0.29651388779
-0.297593732112
-0.298653815956
-0.299694208382
-0.300714978983
-0.30171619787
-0.302697935649
-0.303660263413
-0.304603252718
-0.305526975575
-0.30643150443
-0.307316912156
-0.308183272036
-0.309030657754
-0.309859143382
-0.310668803369
-0.31145971253
-0.312231946038
-0.312985579415
-0.313720688522
-0.314437349548
-0.31513563901
-0.315815633736
-0.316477410868
-0.317121047846
-0.31774662241
-0.31835421259
-0.318943896701
-0.319515753342
-0.320069861385
-0.320606299978
-0.321125148537
-0.321626486745
-0.322110394547
-0.322576952149
-0.323026240016
-0.323458338872
-0.323873329692
-0.324271293709
-0.324652312409
-0.325016467531
-0.325363841069
-0.325694515271
-0.326008572638
-0.32630609593
-0.326587168162
-0.326851872611
-0.327100292816
-0.32733251258
-0.327548615976
-0.327748687346
-0.327932811312
-0.328101072774
-0.328253556918
-0.328390349222
-0.328511535462
-0.328617201715
-0.328707434373
-0.328782320144
-0.328841946063
-0.328886399501
-0.328915768177
-0.32893014016
-0.32892960389
-0.328914248184
-0.328884162248
-0.328839435691
-0.328780158541
-0.328706421258
-0.328618314749
-0.328515930386
-0.328399360024
-0.328268696017
-0.328124031243
-0.327965459121
-0.327793073634
-0.327606969352
-0.327407241462
-0.327193985787
-0.326967298818
-0.326727277745
-0.326474020485
-0.326207625718
-0.325928192919
-0.325635822398
-0.325330615338
-0.325012673836
-0.324682100948
-0.324339000733
-0.323983478306
-0.323615639885
-0.323235592851
-0.322843445801
-0.322439308613
-0.32202329251
-0.321595510128
-0.321156075587
-0.320705104574
-0.320242714415
-0.319769024171
-0.31928415472
-0.318788228861
-0.31828137141
-0.317763709311
-0.317235371749
-0.316696490272
-0.316147198916
-0.315587634344
-0.315017935984
-0.314438246185
-0.313848710375
-0.313249477228
-0.312640698845
-0.312022530943
-0.311395133055
-0.310758668738
-0.310113305798
-0.309459216524
-0.308796577938
-0.308125572053
-0.307446386152
-0.306759213075
-0.306064251528
-0.3053617064
-0.304651789105
-0.303934717932
-0.30321071842
-0.302480023743
-0.301742875122
-0.300999522243
-0.300250223704
-0.299495247473
-0.298734871366
-0.297969383541
-0.29719908301
-0.29642428016
-0.295645297294
-0.294862469184
-0.294076143623
-0.293286681996
-0.292494459844
-0.291699867433
-0.290903310312
-0.29010520986
-0.289306003816
-0.288506146778
-0.287706110671
-0.286906385167
-0.286107478044
-0.285309915485
-0.284514242283
-0.283721021952
-0.282930836721
-0.282144287391
-0.281361993042
-0.28058459056
-0.279812733968
-0.279047093541
-0.278288354671
-0.277537216475
-0.276794390103
-0.27606059675
-0.275336565325
-0.274623029788
-0.273920726124
-0.273230388947
-0.272552747753
-0.271888522794
-0.27123842063
-0.270603129336
-0.269983313448
-0.26937960865
-0.268792616295
-0.268222897807
-0.267670969063
-0.26713729484
-0.266622283428
-0.266126281534
-0.265649569575
-0.265192357494
-0.264754781211
-0.264336899812
-0.263938693596
-0.263560063043
-0.26320082879
-0.262860732655
-0.262539439715
-0.262236541459
-0.261951559942
-0.261683952909
-0.261433119768
-0.261198408304
-0.260979122003
-0.260774527809
-0.260583864163
-0.260406349146
-0.26024118856
-0.260087583778
-0.259944739215
-0.259811869291
-0.259688204774
-0.259572998413
-0.259465529799
-0.25936510942
-0.259271081904
-0.259182828442
-0.259099768449
-0.259021360483
-0.258947102509
-0.258876531565
-0.258809222908
-0.258744788736
-0.258682876546
-0.258623167227
-0.258565372933
-0.258509235003
-0.258454521391
-0.258401024479
-0.258348558796
-0.258296958803
-0.258246076758
-0.258195780709
-0.25814595262
-0.258096486631
-0.258047287474
-0.257998269021
-0.25794935299
-0.25790046777
-0.257851547384
-0.257802530568
-0.257753359951
-0.257703981338
-0.257654343074
-0.257604395475
-0.25755409032
-0.257503380375
-0.257452218912
-0.257400559189
-0.257348353762
-0.257295553453
-0.257242105574
-0.257187950641
-0.257133016007
-0.25707720331
-0.257020363451
-0.256962246504
-0.256902401229
-0.256839973357
-0.256773300523
-0.256699099082
-0.256610832281
-0.256495438572
-0.256326782323
-0.256052581631
-0.255568462708
-0.25466702911
-0.252940068475
-0.249599012099
-0.243174976162
-0.231116874693
-0.209558397878
-0.174138440507
-0.123438643785
-0.065390896228
-0.019858394126
-0.00217921154397
-7.66789423178e-05
-1.8534921119e-06
-4.42056934577e-08
-1.05396413074e-09
-2.51281946043e-11
-5.99126087355e-13
-1.42852161971e-14
-3.40861841236e-16
-7.95167487616e-18
-8.69607467779e-20
0
0
0
0
0
0
0
0
0
0
0
0
0
0
0
0
0
0
0
0
0
0
0
0
0
0
0
0
0
0
0
0
0
0
0
0
0
0
0
0
0
0
0
0
0
0
0
0
0
0
0
0
0
0
0
0
0
0
0
0
0
0
0
0
0
0
0
0
0
0
0
0
0
0
0
0
0
0
0
0
0
0
0
0
0
0
0
0
0
0
0
0
0
0
0
0
0
0
0
0
0
0
0
0
0
0
0
0
0
0
0
0
0
0
0
0
0
0
0
0
0
0
0
0
0
0
0
0
0
0
0
0
0
0
0
0
0
0
0
0
0
0
0
0
0
0
0
0
0
0
0
0
0
0
0
0
0
0
0
0
0
0
0
0
0
0
0
0
0
0
0
0
0
0
0
0
0
0
0
0
0
0
0
0
)
;

boundaryField
{
    inflow
    {
        type            calculated;
        value           uniform 0;
    }
    outflow
    {
        type            calculated;
        value           uniform 0;
    }
    sides
    {
        type            empty;
    }
    topAndBottom
    {
        type            empty;
    }
}


// ************************************************************************* //
