/*--------------------------------*- C++ -*----------------------------------*\
  =========                 |
  \\      /  F ield         | OpenFOAM: The Open Source CFD Toolbox
   \\    /   O peration     | Website:  https://openfoam.org
    \\  /    A nd           | Version:  13
     \\/     M anipulation  |
\*---------------------------------------------------------------------------*/
FoamFile
{
    format      ascii;
    class       surfaceScalarField;
    location    "1";
    object      Dp2;
}
// * * * * * * * * * * * * * * * * * * * * * * * * * * * * * * * * * * * * * //

dimensions      [0 3 -1 0 0 0 0];

internalField   nonuniform List<scalar> 
799
(
-1.22625
-1.22625
-1.22625
-1.22625
-1.22625
-1.22625
-1.22625
-1.22625
-1.22625
-1.22625
-1.22625
-1.22625
-1.22625
-1.22625
-1.22625
-1.22625
-1.22625
-1.22625
-1.22625
-1.22625
-1.22625
-1.22625
-1.22625
-1.22625
-1.22625
-1.22625
-1.22625
-1.22625
-1.22625
-1.22625
-1.22625
-1.22625
-1.22625
-1.22625
-1.22625
-1.22625
-1.22625
-1.22625
-1.22625
-1.22625
-1.22625
-1.22625
-1.22625
-1.22625
-1.22625
-1.22625
-1.22625
-1.22625
-1.22625
-1.22625
-1.22625
-1.22625
-1.22625
-1.22625
-1.22625
-1.22625
-1.22625
-1.22625
-1.22625
-1.22625
-1.22625
-1.22625
-1.22625
-1.22625
-1.22625
-1.22625
-1.22625
-1.22625
-1.22625
-1.22625
-1.22625
-1.22625
-1.22625
-1.22625
-1.22625
-1.22625
-1.22625
-1.22625
-1.22625
-1.22625
-1.22625
-1.22625
-1.22625
-1.22625
-1.22625
-1.22625
-1.22625
-1.22625
-1.22625
-1.22625
-1.22625
-1.22625
-1.22625
-1.22625
-1.22625
-1.22625
-1.22625
-1.22625
-1.22625
-1.22625
-1.22625
-1.22625
-1.22625
-1.22625
-1.22625
-1.22625
-1.22625
-1.22625
-1.22625
-1.22625
-1.22625
-1.22625
-1.22625
-1.22625
-1.22625
-1.22625
-1.22625
-1.22625
-1.22625
-1.22625
-1.22625
-1.22625
-1.22625
-1.22625
-1.22625
-1.22625
-1.22625
-1.22625
-1.22625
-1.22625
-1.22625
-1.22625
-1.22625
-1.22625
-1.22624999999
-1.22624999999
-1.22624999998
-1.22624999997
-1.22624999995
-1.22624999992
-1.22624999987
-1.2262499998
-1.22624999968
-1.2262499995
-1.22624999922
-1.2262499988
-1.22624999816
-1.22624999719
-1.22624999573
-1.22624999353
-1.22624999026
-1.2262499854
-1.22624997823
-1.2262499677
-1.22624995231
-1.22624992994
-1.22624989759
-1.22624985106
-1.22624978447
-1.22624968968
-1.22624955547
-1.22624936645
-1.22624910165
-1.22624873271
-1.22624822142
-1.22624751669
-1.22624655065
-1.22624523364
-1.22624344804
-1.2262410405
-1.22623781246
-1.22623350847
-1.22622780219
-1.22622027948
-1.22621041856
-1.22619756656
-1.22618091261
-1.22615945687
-1.2261319758
-1.22609698348
-1.22605268944
-1.22599695343
-1.22592723788
-1.22584055934
-1.2257334401
-1.22560186203
-1.22544122451
-1.22524630911
-1.22501125334
-1.22472953656
-1.2243939804
-1.22399676644
-1.2235294733
-1.22298313448
-1.22234831811
-1.2216152283
-1.22077382701
-1.21981397432
-1.21872558365
-1.21749878783
-1.21612411071
-1.21459263891
-1.21289618755
-1.21102745421
-1.20898015585
-1.20674914371
-1.2043304928
-1.20172156334
-1.19892103288
-1.19592889942
-1.19274645655
-1.18937624311
-1.1858219706
-1.18208843197
-1.17818139603
-1.17410749174
-1.16987408642
-1.1654891617
-1.16096119071
-1.1562990193
-1.15151175366
-1.14660865614
-1.14159905045
-1.13649223705
-1.13129741903
-1.12602363844
-1.12067972273
-1.11527424087
-1.10981546831
-1.10431136005
-1.09876953106
-1.09319724306
-1.0876013969
-1.08198852968
-1.07636481591
-1.07073607201
-1.06510776345
-1.05948501409
-1.05387261711
-1.04827504723
-1.04269647376
-1.03714077421
-1.03161154821
-1.02611213152
-1.02064560997
-1.01521483314
-1.00982242779
-1.00447081083
-0.999162201805
-0.993898634947
-0.988681970615
-0.983513906218
-0.97839598658
-0.973329613734
-0.968316056179
-0.9633564576
-0.958451845063
-0.953603136723
-0.948811149039
-0.944076603545
-0.939400133184
-0.934782288223
-0.930223541798
-0.925724295075
-0.921284882083
-0.916905574216
-0.912586584434
-0.908328071186
-0.904130142067
-0.899992857225
-0.895916232542
-0.8919002426
-0.887944823448
-0.884049875181
-0.880215264343
-0.876440826179
-0.872726366724
-0.869071664766
-0.865476473663
-0.861940523057
-0.858463520463
-0.855045152757
-0.85168508757
-0.848382974588
-0.84513844677
-0.841951121486
-0.838820601581
-0.835746476379
-0.832728322613
-0.829765705303
-0.826858178578
-0.824005286448
-0.821206563522
-0.818461535691
-0.815769720764
-0.813130629068
-0.810543764005
-0.808008622589
-0.805524695934
-0.803091469731
-0.800708424682
-0.798375036918
-0.796090778389
-0.793855117231
-0.791667518115
-0.789527442573
-0.787434349308
-0.785387694487
-0.783386932011
-0.781431513783
-0.779520889947
-0.777654509125
-0.775831818634
-0.774052264697
-0.772315292636
-0.770620347064
-0.768966872055
-0.767354311317
-0.765782108347
-0.764249706586
-0.762756549555
-0.761302080997
-0.759885745002
-0.758506986131
-0.757165249529
-0.75585998104
-0.754590627309
-0.753356635882
-0.752157455301
-0.750992535194
-0.749861326365
-0.748763280868
-0.747697852094
-0.746664494838
-0.745662665375
-0.744691821525
-0.74375142272
-0.742840930064
-0.741959806391
-0.741107516323
-0.740283526324
-0.739487304752
-0.738718321905
-0.737976050071
-0.737259963573
-0.73656953881
-0.735904254302
-0.735263590725
-0.734647030955
-0.734054060099
-0.733484165533
-0.732936836935
-0.732411566316
-0.731907848055
-0.731425178924
-0.730963058123
-0.7305209873
-0.730098470585
-0.72969501461
-0.729310128541
-0.728943324094
-0.728594115564
-0.728262019846
-0.727946556457
-0.727647247557
-0.727363617969
-0.7270951952
-0.726841509461
-0.726602093684
-0.726376483544
-0.726164217471
-0.725964836676
-0.72577788516
-0.725602909737
-0.725439460049
-0.72528708858
-0.725145350676
-0.725013804558
-0.72489201134
-0.724779535041
-0.724675942607
-0.724580803921
-0.724493691817
-0.724414182104
-0.724341853571
-0.72427628801
-0.724217070228
-0.724163788062
-0.724116032397
-0.724073397182
-0.724035479444
-0.724001879305
-0.7239722
-0.723946047894
-0.723923032495
-0.723902766479
-0.723884865703
-0.723868949223
-0.723854639317
-0.723841561504
-0.723829344562
-0.723817620549
-0.723806024829
-0.72379419609
-0.72378177637
-0.723768411081
-0.723753749034
-0.723737442467
-0.723719147069
-0.723698522014
-0.723675229986
-0.723648937214
-0.723619313505
-0.723586032277
-0.723548770596
-0.723507209215
-0.723461032613
-0.723409929038
-0.72335359055
-0.723291713071
-0.723223996431
-0.723150144421
-0.723069864847
-0.722982869591
-0.722888874666
-0.722787600287
-0.722678770935
-0.722562115428
-0.722437367003
-0.722304263387
-0.722162546891
-0.722011964497
-0.721852267949
-0.721683213861
-0.721504563819
-0.721316084498
-0.721117547778
-0.720908730873
-0.72068941647
-0.720459392865
-0.72021845412
-0.719966400221
-0.719703037253
-0.719428177576
-0.719141640022
-0.718843250094
-0.718532840189
-0.718210249821
-0.717875325871
-0.717527922842
-0.717167903132
-0.716795137332
-0.716409504528
-0.716010892632
-0.715599198728
-0.715174329442
-0.714736201332
-0.7142847413
-0.71381988703
-0.713341587456
-0.712849803244
-0.712344507319
-0.711825685408
-0.711293336619
-0.710747474053
-0.710188125443
-0.709615333837
-0.709029158306
-0.708429674692
-0.707816976393
-0.707191175183
-0.706552402074
-0.705900808205
-0.705236565777
-0.70455986902
-0.703870935193
-0.703170005615
-0.702457346729
-0.701733251186
-0.700998038954
-0.700252058439
-0.699495687614
-0.698729335148
-0.697953441525
-0.697168480143
-0.696374958368
-0.695573418552
-0.694764438968
-0.693948634664
-0.693126658207
-0.692299200284
-0.691466990144
-0.690630795847
-0.689791424283
-0.688949720933
-0.688106569327
-0.687262890169
-0.686419640085
-0.685577809951
-0.684738422767
-0.683902531034
-0.683071213603
-0.682245571958
-0.681426725921
-0.68061580874
-0.679813961575
-0.679022327369
-0.678242044126
-0.677474237635
-0.676720013673
-0.675980449771
-0.675256586627
-0.674549419259
-0.673859888043
-0.673188869768
-0.672537168873
-0.671905509035
-0.671294525291
-0.670704756882
-0.670136640996
-0.669590507584
-0.66906657542
-0.668564949517
-0.668085620035
-0.667628462725
-0.667193240972
-0.666779609407
-0.666387119041
-0.666015223839
-0.665663288576
-0.665330597826
-0.66501636586
-0.664719747239
-0.664439847862
-0.66417573621
-0.663926454555
-0.663691029891
-0.663468484377
-0.663257845112
-0.663058153065
-0.662868471063
-0.662687890724
-0.6625155383
-0.662350579412
-0.662192222677
-0.662039722286
-0.661892379584
-0.661749543747
-0.661610611644
-0.66147502699
-0.661342278905
-0.661211899981
-0.661083463962
-0.660956583109
-0.66083090573
-0.660706112819
-0.660581915329
-0.660458051281
-0.660334282931
-0.660210394039
-0.66008618728
-0.659961481816
-0.659836111036
-0.659709920477
-0.659582765922
-0.659454511669
-0.659325028967
-0.659194194608
-0.659061889655
-0.658927998304
-0.658792406855
-0.658655002769
-0.658515673806
-0.658374307184
-0.658230788738
-0.65808500196
-0.65793682677
-0.657786137685
-0.657632800731
-0.657476667806
-0.657317565896
-0.657155275918
-0.656989490697
-0.656819730998
-0.656645177228
-0.6564643317
-0.656274340497
-0.656069631812
-0.655839182501
-0.655561033939
-0.655191300249
-0.654642178172
-0.653738105761
-0.652128942603
-0.649120316413
-0.6433509127
-0.63221192016
-0.610922933444
-0.571466323888
-0.502635646274
-0.394594182668
-0.252085565101
-0.110628297125
-0.0238909545036
-0.00169701685384
-0.000515118089637
-0.000491080788813
-0.000490513845775
-0.000490500330111
-0.00049050000787
-0.000490500000188
-0.000490500000004
-0.0004905
-0.0004905
-0.0004905
-0.0004905
-0.0004905
-0.0004905
-0.0004905
-0.0004905
-0.0004905
-0.0004905
-0.0004905
-0.0004905
-0.0004905
-0.0004905
-0.0004905
-0.0004905
-0.0004905
-0.0004905
-0.0004905
-0.0004905
-0.0004905
-0.0004905
-0.0004905
-0.0004905
-0.0004905
-0.0004905
-0.0004905
-0.0004905
-0.0004905
-0.0004905
-0.0004905
-0.0004905
-0.0004905
-0.0004905
-0.0004905
-0.0004905
-0.0004905
-0.0004905
-0.0004905
-0.0004905
-0.0004905
-0.0004905
-0.0004905
-0.0004905
-0.0004905
-0.0004905
-0.0004905
-0.0004905
-0.0004905
-0.0004905
-0.0004905
-0.0004905
-0.0004905
-0.0004905
-0.0004905
-0.0004905
-0.0004905
-0.0004905
-0.0004905
-0.0004905
-0.0004905
-0.0004905
-0.0004905
-0.0004905
-0.0004905
-0.0004905
-0.0004905
-0.0004905
-0.0004905
-0.0004905
-0.0004905
-0.0004905
-0.0004905
-0.0004905
-0.0004905
-0.0004905
-0.0004905
-0.0004905
-0.0004905
-0.0004905
-0.0004905
-0.0004905
-0.0004905
-0.0004905
-0.0004905
-0.0004905
-0.0004905
-0.0004905
-0.0004905
-0.0004905
-0.0004905
-0.0004905
-0.0004905
-0.0004905
-0.0004905
-0.0004905
-0.0004905
-0.0004905
-0.0004905
-0.0004905
-0.0004905
-0.0004905
-0.0004905
-0.0004905
-0.0004905
-0.0004905
-0.0004905
-0.0004905
-0.0004905
-0.0004905
-0.0004905
-0.0004905
-0.0004905
-0.0004905
-0.0004905
-0.0004905
-0.0004905
-0.0004905
-0.0004905
-0.0004905
-0.0004905
-0.0004905
-0.0004905
-0.0004905
-0.0004905
-0.0004905
-0.0004905
-0.0004905
-0.0004905
-0.0004905
-0.0004905
-0.0004905
-0.0004905
-0.0004905
-0.0004905
-0.0004905
-0.0004905
-0.0004905
-0.0004905
-0.0004905
-0.0004905
-0.0004905
-0.0004905
-0.0004905
-0.0004905
-0.0004905
-0.0004905
-0.0004905
-0.0004905
-0.0004905
-0.0004905
-0.0004905
-0.0004905
-0.0004905
-0.0004905
-0.0004905
-0.0004905
-0.0004905
-0.0004905
-0.0004905
-0.0004905
-0.0004905
-0.0004905
-0.0004905
-0.0004905
-0.0004905
-0.0004905
-0.0004905
-0.0004905
-0.0004905
-0.0004905
-0.0004905
-0.0004905
-0.0004905
-0.0004905
-0.0004905
-0.0004905
-0.0004905
-0.0004905
-0.0004905
-0.0004905
-0.0004905
-0.0004905
-0.0004905
-0.0004905
-0.0004905
-0.0004905
)
;

boundaryField
{
    inflow
    {
        type            calculated;
        value           uniform 1.22625;
    }
    outflow
    {
        type            calculated;
        value           uniform -0.0004905;
    }
    sides
    {
        type            empty;
    }
    topAndBottom
    {
        type            empty;
    }
}


// ************************************************************************* //
