/*--------------------------------*- C++ -*----------------------------------*\
  =========                 |
  \\      /  F ield         | OpenFOAM: The Open Source CFD Toolbox
   \\    /   O peration     | Website:  https://openfoam.org
    \\  /    A nd           | Version:  13
     \\/     M anipulation  |
\*---------------------------------------------------------------------------*/
FoamFile
{
    format      ascii;
    class       volScalarField;
    location    "1";
    object      Q1;
}
// * * * * * * * * * * * * * * * * * * * * * * * * * * * * * * * * * * * * * //

dimensions      [];

internalField   nonuniform List<scalar> 
800
(
0.5
0.5
0.5
0.5
0.5
0.5
0.5
0.5
0.5
0.5
0.5
0.5
0.5
0.5
0.5
0.5
0.5
0.5
0.5
0.5
0.5
0.5
0.5
0.5
0.5
0.5
0.5
0.5
0.5
0.5
0.5
0.5
0.5
0.5
0.5
0.5
0.5
0.5
0.5
0.5
0.5
0.5
0.5
0.5
0.5
0.5
0.5
0.5
0.5
0.5
0.5
0.5
0.5
0.5
0.5
0.5
0.5
0.5
0.5
0.5
0.5
0.5
0.5
0.5
0.5
0.5
0.5
0.5
0.5
0.5
0.5
0.5
0.5
0.5
0.5
0.5
0.5
0.5
0.5
0.5
0.5
0.5
0.5
0.5
0.5
0.5
0.5
0.5
0.5
0.5
0.5
0.5
0.5
0.5
0.5
0.5
0.5
0.5
0.5
0.5
0.5
0.5
0.5
0.5
0.5
0.5
0.5
0.5
0.5
0.5
0.5
0.5
0.5
0.5
0.5
0.5
0.5
0.5
0.5
0.5
0.5
0.5
0.5
0.5
0.5
0.5
0.5
0.5
0.5
0.5
0.5
0.5
0.5
0.499999999999
0.499999999999
0.499999999998
0.499999999997
0.499999999996
0.499999999993
0.499999999989
0.499999999982
0.499999999971
0.499999999955
0.49999999993
0.499999999891
0.499999999831
0.499999999739
0.499999999599
0.499999999388
0.49999999907
0.499999998594
0.499999997884
0.499999996832
0.49999999528
0.499999993002
0.499999989678
0.499999984849
0.499999977874
0.499999967848
0.499999953516
0.499999933133
0.499999904301
0.499999863732
0.499999806953
0.499999727917
0.499999618488
0.499999467803
0.499999261437
0.499998980363
0.499998599639
0.49999808679
0.499997399807
0.499996484705
0.499995272592
0.499993676142
0.499991585444
0.499988863136
0.499985338793
0.49998080251
0.499974997697
0.499967613081
0.499958273989
0.499946533013
0.499931860226
0.499913633168
0.499891126907
0.49986350451
0.499829808374
0.499788952865
0.499739718788
0.499680750214
0.499610554177
0.499527503709
0.499429844618
0.499315706276
0.499183116547
0.499030020819
0.498854304895
0.498653821285
0.498426418289
0.498169971032
0.49788241352
0.497561770665
0.497206189221
0.49681396658
0.496383576476
0.495913690791
0.495403196822
0.494851209605
0.494257079101
0.493620392276
0.492940970316
0.49221886138
0.491454329451
0.490647839929
0.489800042655
0.488911753095
0.487983932354
0.487017666677
0.486014146999
0.484974649019
0.48390051421
0.482793132051
0.481653923706
0.480484327282
0.479285784741
0.478059730462
0.476807581429
0.475530728968
0.474230531927
0.47290831119
0.471565345398
0.47020286774
0.468822063692
0.467424069574
0.466009971807
0.464580806766
0.46313756112
0.461681172579
0.460212530959
0.45873247951
0.457241816419
0.45574129648
0.454231632833
0.452713498788
0.451187529663
0.449654324633
0.448114448562
0.446568433806
0.445016781967
0.443459965598
0.441898429844
0.440332594018
0.438762853112
0.43718957923
0.435613122956
0.434033814649
0.432451965667
0.430867869527
0.429281802992
0.427694027102
0.426104788139
0.424514318532
0.422922837715
0.421330552921
0.419737659932
0.418144343783
0.41655077942
0.41495713231
0.413363559027
0.411770207781
0.41017721893
0.408584725446
0.406992853363
0.405401722187
0.403811445281
0.40222213023
0.400633879179
0.39904678915
0.397460952336
0.395876456383
0.39429338465
0.39271181645
0.39113182728
0.389553489038
0.387976870219
0.386402036107
0.384829048952
0.383257968133
0.381688850317
0.380121749605
0.378556717668
0.376993803876
0.375433055423
0.373874517438
0.372318233092
0.370764243705
0.369212588834
0.367663306368
0.366116432611
0.364572002362
0.363030048989
0.361490604505
0.359953699628
0.358419363849
0.356887625493
0.35535851177
0.353832048836
0.352308261836
0.350787174958
0.349268811475
0.34775319379
0.346240343475
0.34473028131
0.34322302732
0.341718600811
0.340217020398
0.338718304045
0.337222469084
0.335729532254
0.334239509719
0.3327524171
0.331268269493
0.329787081499
0.328308867242
0.32683364039
0.325361414175
0.323892201415
0.32242601453
0.320962865557
0.319502766171
0.3180457277
0.316591761137
0.315140877158
0.313693086136
0.31224839815
0.310806823003
0.309368370233
0.307933049121
0.306500868708
0.305071837801
0.303645964986
0.302223258639
0.300803726932
0.299387377846
0.297974219179
0.296564258553
0.295157503423
0.293753961088
0.292353638695
0.290956543249
0.289562681619
0.288172060546
0.286784686651
0.285400566439
0.284019706307
0.282642112552
0.281267791375
0.279896748889
0.278528991123
0.27716452403
0.275803353491
0.274445485323
0.273090925283
0.271739679071
0.270391752343
0.269047150708
0.26770587974
0.266367944977
0.265033351933
0.263702106098
0.262374212948
0.261049677946
0.259728506548
0.258410704211
0.257096276396
0.255785228575
0.254477566234
0.253173294881
0.25187242005
0.250574947307
0.249280882256
0.247990230546
0.246702997872
0.245419189987
0.244138812706
0.24286187191
0.241588373555
0.240318323679
0.239051728405
0.237788593952
0.23652892664
0.2352727329
0.234020019276
0.232770792439
0.23152505919
0.230282826474
0.229044101381
0.227808891163
0.226577203236
0.225349045197
0.224124424827
0.222903350106
0.221685829221
0.220471870579
0.21926148282
0.218054674824
0.21685145573
0.215651834945
0.214455822159
0.213263427361
0.212074660851
0.21088953326
0.209708055562
0.208530239095
0.207356095576
0.206185637124
0.205018876275
0.203855826006
0.202696499758
0.201540911455
0.200389075531
0.199241006955
0.198096721257
0.196956234555
0.195819563585
0.194686725735
0.19355773907
0.192432622374
0.191311395179
0.190194077808
0.189080691413
0.187971258013
0.186865800544
0.1857643429
0.184666909985
0.183573527763
0.18248422331
0.181399024875
0.180317961937
0.179241065266
0.178168366995
0.177099900687
0.176035701405
0.174975805798
0.173920252173
0.17286908059
0.171822332947
0.170780053079
0.169742286854
0.168709082285
0.167680489636
0.166656561544
0.165637353137
0.16462292217
0.163613329154
0.162608637505
0.161608913692
0.160614227394
0.159624651666
0.158640263111
0.157661142063
0.156687372771
0.155719043604
0.15475624725
0.153799080935
0.152847646643
0.151902051347
0.15096240725
0.150028832031
0.149101449099
0.148180387856
0.147265783963
0.146357779613
0.145456523811
0.144562172649
0.143674889591
0.142794845753
0.141922220178
0.141057200109
0.140199981251
0.13935076802
0.13850977378
0.137677221049
0.136853341688
0.136038377052
0.135232578104
0.134436205477
0.13364952949
0.132872830089
0.132106396723
0.131350528133
0.130605532041
0.129871724738
0.129149430546
0.128438981156
0.12774071481
0.127054975331
0.126382110982
0.125722473143
0.125076414789
0.124444288777
0.123826445915
0.123223232822
0.122634989583
0.122062047184
0.12150472476
0.120963326651
0.1204381393
0.119929428013
0.119437433619
0.118962369073
0.11850441605
0.118063721586
0.117640394824
0.117234503954
0.116846073378
0.116475081226
0.116121457243
0.115785081165
0.115465781615
0.115163335595
0.114877468619
0.114607855515
0.114354121916
0.114115846451
0.113892563593
0.113683767164
0.113488914406
0.11330743057
0.113138713922
0.112982141071
0.112837072512
0.11270285826
0.112578843474
0.112464373935
0.112358801301
0.11226148802
0.112171811825
0.112089169749
0.112012981604
0.111942692897
0.111877777156
0.111817737686
0.111762108753
0.111710456241
0.111662377811
0.111617502617
0.111575490634
0.111536031658
0.111498844025
0.111463673128
0.111430289773
0.111398488418
0.111368085408
0.111338917127
0.111310838141
0.111283719493
0.111257447018
0.111231919747
0.111207048412
0.111182754063
0.111158966797
0.111135624608
0.111112672343
0.111090060769
0.111067745748
0.111045687501
0.111023849965
0.111002200233
0.110980708056
0.110959345418
0.110938086168
0.110916905686
0.1108957806
0.110874688521
0.110853607782
0.110832517159
0.110811395506
0.110790221211
0.110768971256
0.110747619457
0.110726133065
0.110704466029
0.110682545566
0.110660245247
0.110637330995
0.110613352676
0.110587426423
0.11055779775
0.110520965194
0.110469924523
0.110390658434
0.110255146893
0.110007558789
0.109537396264
0.108628878948
0.106871501395
0.103522613154
0.0973619137758
0.0867337316244
0.0702519541647
0.0486974018215
0.0272908196737
0.013999111614
0.0103296172393
0.0100103363855
0.0100002486187
0.0100000059288
0.0100000001414
0.0100000000034
0.0100000000001
0.01
0.01
0.01
0.01
0.01
0.01
0.01
0.01
0.01
0.01
0.01
0.01
0.01
0.01
0.01
0.01
0.01
0.01
0.01
0.01
0.01
0.01
0.01
0.01
0.01
0.01
0.01
0.01
0.01
0.01
0.01
0.01
0.01
0.01
0.01
0.01
0.01
0.01
0.01
0.01
0.01
0.01
0.01
0.01
0.01
0.01
0.01
0.01
0.01
0.01
0.01
0.01
0.01
0.01
0.01
0.01
0.01
0.01
0.01
0.01
0.01
0.01
0.01
0.01
0.01
0.01
0.01
0.01
0.01
0.01
0.01
0.01
0.01
0.01
0.01
0.01
0.01
0.01
0.01
0.01
0.01
0.01
0.01
0.01
0.01
0.01
0.01
0.01
0.01
0.01
0.01
0.01
0.01
0.01
0.01
0.01
0.01
0.01
0.01
0.01
0.01
0.01
0.01
0.01
0.01
0.01
0.01
0.01
0.01
0.01
0.01
0.01
0.01
0.01
0.01
0.01
0.01
0.01
0.01
0.01
0.01
0.01
0.01
0.01
0.01
0.01
0.01
0.01
0.01
0.01
0.01
0.01
0.01
0.01
0.01
0.01
0.01
0.01
0.01
0.01
0.01
0.01
0.01
0.01
0.01
0.01
0.01
0.01
0.01
0.01
0.01
0.01
0.01
0.01
0.01
0.01
0.01
0.01
0.01
0.01
0.01
0.01
0.01
0.01
0.01
0.01
0.01
0.01
0.01
0.01
0.01
0.01
0.01
0.01
0.01
0.01
0.01
0.01
0.01
0.01
0.01
0.01
0.01
0.01
0.01
0.01
0.01
0.01
)
;

boundaryField
{
    inflow
    {
        type            zeroGradient;
    }
    outflow
    {
        type            zeroGradient;
    }
    sides
    {
        type            empty;
    }
    topAndBottom
    {
        type            empty;
    }
}


// ************************************************************************* //
