/*--------------------------------*- C++ -*----------------------------------*\
  =========                 |
  \\      /  F ield         | OpenFOAM: The Open Source CFD Toolbox
   \\    /   O peration     | Website:  https://openfoam.org
    \\  /    A nd           | Version:  13
     \\/     M anipulation  |
\*---------------------------------------------------------------------------*/
FoamFile
{
    format      ascii;
    class       volScalarField;
    location    "1";
    object      Q2;
}
// * * * * * * * * * * * * * * * * * * * * * * * * * * * * * * * * * * * * * //

dimensions      [];

internalField   nonuniform List<scalar> 
800
(
0
0
0
0
0
0
0
0
0
0
0
0
0
0
0
0
0
0
0
0
0
0
0
0
0
0
0
0
0
0
0
0
0
0
0
0
0
0
0
0
0
0
0
0
0
0
0
0
0
0
0
0
0
0
0
0
0
0
0
0
0
0
0
0
0
0
0
0
0
0
0
0
0
0
0
0
0
0
0
0
0
0
0
0
0
0
0
0
0
0
0
0
0
0
0
0
0
0
0
0
0
0
0
0
0
0
0
0
0
0
0
0
0
0
7.9153380945e-17
2.77039144395e-16
7.12390571168e-16
1.21371329225e-15
1.70185538319e-15
2.20320058235e-15
2.87605669773e-15
4.02385028929e-15
5.93682072915e-15
9.24821630697e-15
1.50530305167e-14
2.48684305727e-14
4.13461596567e-14
6.906409371e-14
1.15449762943e-13
1.92495379186e-13
3.19831784264e-13
5.29240378771e-13
8.7186957329e-13
1.42991045476e-12
2.33424881276e-12
3.79306713724e-12
6.13486656173e-12
9.87594830527e-12
1.58233444522e-11
2.52323804718e-11
4.00452686539e-11
6.32514590125e-11
9.9428403654e-11
1.55547974349e-10
2.42173154393e-10
3.75222701464e-10
5.7855863116e-10
8.87757799562e-10
1.35557681088e-09
2.05982287452e-09
3.1146215459e-09
4.68644827768e-09
7.01679761777e-09
1.04540366935e-08
1.54978817892e-08
2.28611031808e-08
3.35545744623e-08
4.90037296297e-08
7.1206962552e-08
1.02949615396e-07
1.4809107704e-07
2.11947277695e-07
3.0179664759e-07
4.27544540009e-07
6.02589290439e-07
8.4494256537e-07
1.17866745063e-06
1.63570974729e-06
2.25821098926e-06
3.10140540239e-06
4.23721683658e-06
5.75868483512e-06
7.78536039335e-06
1.04698202496e-05
1.40054520922e-05
1.86356598825e-05
2.4664626399e-05
3.24697467131e-05
4.25158092169e-05
5.53709477909e-05
7.17243178889e-05
9.24053596309e-05
0.00011840440236
0.000150894238988
0.000191252157988
0.000241081771527
0.000302233827481
0.000376825051105
0.000467253940824
0.000576212355636
0.000706691693188
0.00086198248123
0.0010456663024
0.00126159915077
0.00151388558047
0.00180684334746
0.0021449586524
0.0025328325459
0.00297511952913
0.00347645984089
0.00404140733165
0.0046743551512
0.00537946169085
0.00616057930135
0.00702118824379
0.00796433812407
0.00899259872689
0.0101080217263
0.011312114242
0.0126058246688
0.0139895406741
0.0154630987631
0.0170258043911
0.0186764612707
0.0204134082919
0.0222345623486
0.024137465339
0.0261193336629
0.0281771086702
0.0303075066887
0.0325070674736
0.0347722001408
0.0370992258767
0.0394844169257
0.0419240315548
0.0444143448595
0.0469516754195
0.049532407923
0.0521530119661
0.0548100572925
0.0575002257807
0.0602203205049
0.0629672722047
0.0657381434912
0.0685301311058
0.0713405665258
0.0741669151918
0.0770067745999
0.0798578714824
0.0827180582691
0.0855853089983
0.0884577148251
0.0913334792483
0.0942109131622
0.0970884298191
0.099964539774
0.102837845869
0.105707038303
0.108570889823
0.111428251064
0.114278046058
0.117119267924
0.11995097475
0.122772285672
0.125582377151
0.128380479444
0.131165873278
0.133937886698
0.136695892114
0.139439303516
0.142167573856
0.144880192604
0.14757668344
0.150256602109
0.152919534401
0.155565094266
0.158192922054
0.160802682862
0.163394064999
0.165966778545
0.168520554002
0.171055141045
0.173570307344
0.176065837469
0.178541531867
0.180997205902
0.183432688966
0.185847823638
0.188242464904
0.190616479432
0.192969744881
0.195302149266
0.197613590361
0.199903975136
0.202173219237
0.204421246492
0.206647988453
0.208853383963
0.211037378754
0.213199925069
0.215340981303
0.217460511672
0.2195584859
0.221634878921
0.223689670608
0.225722845509
0.227734392605
0.229724305078
0.231692580097
0.233639218613
0.235564225165
0.237467607706
0.239349377424
0.241209548589
0.243048138396
0.244865166825
0.246660656507
0.248434632592
0.250187122635
0.251918156476
0.253627766137
0.25531598572
0.256982851307
0.258628400873
0.260252674199
0.261855712788
0.263437559791
0.264998259933
0.266537859441
0.268056405982
0.269553948597
0.271030537643
0.27248622474
0.273921062713
0.275335105542
0.276728408316
0.278101027188
0.279453019325
0.280784442878
0.282095356929
0.283385821467
0.284655897342
0.285905646237
0.287135130635
0.288344413785
0.289533559679
0.290702633018
0.29185169919
0.292980824241
0.294090074855
0.29517951833
0.296249222555
0.297299255988
0.298329687642
0.29934058706
0.300332024301
0.301304069921
0.302256794959
0.30319027092
0.304104569758
0.30499976387
0.305875926072
0.306733129597
0.307571448075
0.308390955527
0.309191726349
0.30997383531
0.310737357533
0.311482368493
0.312208944006
0.312917160219
0.313607093607
0.314278820962
0.314932419386
0.31556796629
0.316185539382
0.316785216666
0.317367076435
0.317931197266
0.318477658019
0.319006537829
0.319517916107
0.320011872532
0.320488487055
0.320947839891
0.32139001152
0.321815082683
0.322223134387
0.322614247896
0.322988504739
0.323345986701
0.323686775834
0.324010954449
0.324318605121
0.324609810691
0.324884654266
0.325143219226
0.32538558922
0.325611848175
0.325822080298
0.326016370079
0.326194802298
0.326357462028
0.326504434642
0.32663580582
0.326751661553
0.326852088153
0.32693717226
0.32700700085
0.327061661245
0.327101241122
0.327125828524
0.32713551187
0.327130379969
0.327110522033
0.327076027685
0.327026986982
0.326963490423
0.326885628969
0.326793494059
0.326687177628
0.326566772127
0.326432370545
0.326284066425
0.326121953896
0.325946127688
0.325756683164
0.325553716345
0.325337323939
0.325107603372
0.324864652818
0.324608571238
0.324339458409
0.324057414969
0.323762542453
0.323454943338
0.323134721086
0.322801980194
0.32245682624
0.322099365944
0.321729707216
0.321347959222
0.320954232443
0.320548638744
0.320131291443
0.319702305387
0.31926179703
0.318809884518
0.318346687773
0.317872328594
0.317386930748
0.31689062008
0.31638352462
0.315865774704
0.315337503092
0.314798845106
0.314249938763
0.313690924924
0.313121947447
0.312543153352
0.311954692996
0.31135672025
0.310749392698
0.310132871839
0.309507323302
0.308872917071
0.308229827731
0.307578234715
0.306918322572
0.30625028125
0.305574306388
0.304890599627
0.304199368942
0.303500828973
0.302795201398
0.302082715296
0.301363607549
0.30063812325
0.299906516131
0.299169049007
0.29842599424
0.29767763422
0.296924261854
0.296166181083
0.295403707398
0.294637168379
0.293866904241
0.293093268378
0.292316627927
0.291537364317
0.290755873818
0.289972568085
0.28918787468
0.288402237569
0.287616117594
0.286829992896
0.28604435929
0.285259730581
0.284476638789
0.283695634299
0.282917285891
0.282142180654
0.281370923746
0.280604137999
0.27984246334
0.279086555996
0.278337087476
0.277594743307
0.276860221486
0.276134230643
0.275417487887
0.274710716326
0.274014642234
0.273329991868
0.27265748793
0.271997845668
0.271351768632
0.270719944118
0.2701030383
0.269501691121
0.268916510977
0.268348069265
0.267796894872
0.267263468682
0.26674821822
0.266251512509
0.265773657285
0.265314890656
0.264875379344
0.264455215608
0.264054414953
0.263672914728
0.263310573669
0.262967172464
0.262642415343
0.262335932729
0.262047284894
0.261775966591
0.261521412571
0.261283003875
0.261060074787
0.260851920275
0.260657803794
0.260476965255
0.260308628999
0.260152011628
0.260006329513
0.259870805868
0.259744677253
0.259627199415
0.259517652401
0.259415344893
0.25931961774
0.259229846689
0.259145444346
0.259065861398
0.258990587146
0.258919149438
0.258851114054
0.258786083624
0.258723696182
0.258663623402
0.258605568612
0.258549264641
0.258494471651
0.258440974861
0.258388582167
0.25833712202
0.258286441304
0.258236403308
0.258186885832
0.258137779416
0.258088985725
0.258040416061
0.25799199003
0.257943634332
0.25789528169
0.25784686989
0.257798340938
0.257749640308
0.257700716292
0.257651519409
0.257602001897
0.257552117239
0.257501819729
0.257451064039
0.257399804736
0.257347995656
0.257295588973
0.257242533587
0.25718877216
0.257134235377
0.257078830647
0.257022419578
0.256964772907
0.256905480091
0.256843767811
0.256778135529
0.256705623781
0.256620345691
0.256510542087
0.256352683908
0.256099691135
0.255657512241
0.254839004048
0.253274816715
0.250247726526
0.244408758068
0.233374578212
0.213425999388
0.180130791372
0.131492933266
0.0741585212938
0.02638709349
0.00403620418406
0.000157120551785
3.28842420613e-06
7.7892227959e-08
1.85696213917e-09
4.42732617711e-11
1.05557450536e-12
2.51682836771e-14
6.0003423886e-16
1.43130621689e-17
3.15634292673e-19
0
0
0
0
0
0
0
0
0
0
0
0
0
0
0
0
0
0
0
0
0
0
0
0
0
0
0
0
0
0
0
0
0
0
0
0
0
0
0
0
0
0
0
0
0
0
0
0
0
0
0
0
0
0
0
0
0
0
0
0
0
0
0
0
0
0
0
0
0
0
0
0
0
0
0
0
0
0
0
0
0
0
0
0
0
0
0
0
0
0
0
0
0
0
0
0
0
0
0
0
0
0
0
0
0
0
0
0
0
0
0
0
0
0
0
0
0
0
0
0
0
0
0
0
0
0
0
0
0
0
0
0
0
0
0
0
0
0
0
0
0
0
0
0
0
0
0
0
0
0
0
0
0
0
0
0
0
0
0
0
0
0
0
0
0
0
0
0
0
0
0
0
0
0
0
0
0
0
0
0
0
0
0
0
0
)
;

boundaryField
{
    inflow
    {
        type            zeroGradient;
    }
    outflow
    {
        type            zeroGradient;
    }
    sides
    {
        type            empty;
    }
    topAndBottom
    {
        type            empty;
    }
}


// ************************************************************************* //
