/*--------------------------------*- C++ -*----------------------------------*\
  =========                 |
  \\      /  F ield         | OpenFOAM: The Open Source CFD Toolbox
   \\    /   O peration     | Website:  https://openfoam.org
    \\  /    A nd           | Version:  13
     \\/     M anipulation  |
\*---------------------------------------------------------------------------*/
FoamFile
{
    format      ascii;
    class       surfaceScalarField;
    location    "1";
    object      Dm2;
}
// * * * * * * * * * * * * * * * * * * * * * * * * * * * * * * * * * * * * * //

dimensions      [0 3 -1 0 0 0 0];

internalField   nonuniform List<scalar> 
399
(
1.22625
1.22625
1.22625
1.22625
1.22625
1.22625
1.22625
1.22625
1.22625
1.22625
1.22625
1.22625
1.22625
1.22625
1.22625
1.22625
1.22625
1.22625
1.22625
1.22625
1.22625
1.22625
1.22625
1.22625
1.22625
1.22625
1.22625
1.22625
1.22625
1.22625
1.22625
1.22625
1.22625
1.22625
1.22625
1.22625
1.22625
1.22625
1.22625
1.22625
1.22625
1.22625
1.22625
1.22625
1.22625
1.22625
1.22625
1.22625
1.22625
1.22625
1.22625
1.22625
1.22625
1.22625
1.22625
1.22625
1.22625
1.22625
1.22625
1.22625
1.22625
1.22625
1.22625
1.22625
1.22625
1.22625
1.22625
1.22625
1.22625
1.22625
1.22625
1.22625
1.22625
1.22625
1.22625
1.22625
1.22625
1.22625
1.22625
1.22625
1.22625
1.22625
1.22625
1.22625
1.22625
1.22625
1.22625
1.22625
1.22625
1.22625
1.22625
1.22625
1.22625
1.22625
1.22625
1.22625
1.22625
1.22625
1.22625
1.22625
1.22625
1.22625
1.22625
1.22625
1.22625
1.22625
1.22625
1.22625
1.22625
1.22160311836
1.20919122615
1.19424771984
1.17858811348
1.16285231344
1.1472785776
1.1319639623
1.11695450355
1.10227444037
1.0879375904
1.07395180999
1.06032118748
1.04704729504
1.03412993388
1.02156759913
1.00935778273
0.997497210428
0.985982041662
0.97480802561
0.963970603881
0.953464965666
0.943286079016
0.9334287249
0.923887544755
0.914657091157
0.905731863141
0.897106317676
0.888774865933
0.880731871965
0.872971665476
0.865488565761
0.858276903417
0.85133102844
0.844645304757
0.838214101644
0.832031793111
0.826092767886
0.820391443141
0.814922272818
0.809679747113
0.804658387313
0.799852742996
0.795257394883
0.790866960886
0.786676100382
0.782679514131
0.778871941569
0.775248159355
0.771802983398
0.76853127322
0.765427935416
0.762487923955
0.759706237789
0.757077918392
0.75459804955
0.752261759612
0.750064224318
0.748000668072
0.74606636313
0.74425662813
0.742566827948
0.740992375552
0.739528734567
0.73817142035
0.736915998458
0.735758081505
0.734693326882
0.733717437364
0.732826164529
0.732015312782
0.731280741273
0.730618362497
0.730024138702
0.72949407876
0.729024237736
0.728610719423
0.728249680091
0.727937330939
0.727669937768
0.727443818304
0.72725533909
0.72710091397
0.726977005023
0.726880125204
0.726806841056
0.726753774068
0.726717600303
0.72669504895
0.726682900918
0.726677988241
0.726677194353
0.726677454789
0.72667575778
0.726669144503
0.726654709153
0.726629599062
0.726591015035
0.726536211811
0.726462498526
0.726367239135
0.726247852936
0.726101815323
0.725926658763
0.725719973706
0.725479409061
0.725202672069
0.724887527783
0.724531798789
0.724133365851
0.723690169791
0.72320021437
0.722661569373
0.722072373046
0.721430833371
0.720735228407
0.719983906527
0.719175287628
0.718307866126
0.717380215932
0.716390996991
0.715338962648
0.714222967204
0.713041973503
0.711795060898
0.710481434347
0.709100435444
0.707651555982
0.706134454335
0.704548974535
0.702895167776
0.701173315863
0.699383956212
0.697527908048
0.695606299855
0.693620599038
0.691572646933
0.689464707169
0.687299546011
0.685080585863
0.682812219128
0.680500458141
0.678154249525
0.675788053739
0.673426639892
0.671112759826
0.668920891428
0.666977152427
0.665432491155
0.664570336501
0.664551797839
0.664614937886
0.664942168753
0.665674127735
0.666760502179
0.668062443503
0.669393194456
0.6705508702
0.671225840154
0.671483155842
0.671483155842
0.671437631965
0.6712828354
0.671025634342
0.670697836998
0.670331578858
0.66996242293
0.669618757553
0.669344833465
0.669276506344
0.669146829193
0.669126321693
0.66912479768
0.669169883615
0.669259344938
0.669384333575
0.669536236659
0.669702385627
0.669870329994
0.670031403385
0.670178052891
0.670292228146
0.67039957598
0.670487508151
0.670505170679
0.670514320569
0.670479746172
0.6703841174
0.67028165427
0.670325566433
0.670166747255
0.668507308995
0.658102657945
0.580704155811
0.197913803137
0.00285720487517
0.0004905
0.0004905
0.0004905
0.0004905
0.0004905
0.0004905
0.0004905
0.0004905
0.0004905
0.0004905
0.0004905
0.0004905
0.0004905
0.0004905
0.0004905
0.0004905
0.0004905
0.0004905
0.0004905
0.0004905
0.0004905
0.0004905
0.0004905
0.0004905
0.0004905
0.0004905
0.0004905
0.0004905
0.0004905
0.0004905
0.0004905
0.0004905
0.0004905
0.0004905
0.0004905
0.0004905
0.0004905
0.0004905
0.0004905
0.0004905
0.0004905
0.0004905
0.0004905
0.0004905
0.0004905
0.0004905
0.0004905
0.0004905
0.0004905
0.0004905
0.0004905
0.0004905
0.0004905
0.0004905
0.0004905
0.0004905
0.0004905
0.0004905
0.0004905
0.0004905
0.0004905
0.0004905
0.0004905
0.0004905
0.0004905
0.0004905
0.0004905
0.0004905
0.0004905
0.0004905
0.0004905
0.0004905
0.0004905
0.0004905
0.0004905
0.0004905
0.0004905
0.0004905
0.0004905
0.0004905
0.0004905
0.0004905
0.0004905
0.0004905
0.0004905
0.0004905
0.0004905
0.0004905
0.0004905
0.0004905
0.0004905
0.0004905
0.0004905
0.0004905
0.0004905
)
;

boundaryField
{
    inflow
    {
        type            calculated;
        value           uniform -1.22625;
    }
    outflow
    {
        type            calculated;
        value           uniform 0.0004905;
    }
    sides
    {
        type            empty;
    }
    topAndBottom
    {
        type            empty;
    }
}


// ************************************************************************* //
