/*--------------------------------*- C++ -*----------------------------------*\
  =========                 |
  \\      /  F ield         | OpenFOAM: The Open Source CFD Toolbox
   \\    /   O peration     | Website:  https://openfoam.org
    \\  /    A nd           | Version:  13
     \\/     M anipulation  |
\*---------------------------------------------------------------------------*/
FoamFile
{
    format      ascii;
    class       surfaceScalarField;
    location    "1";
    object      Dp1;
}
// * * * * * * * * * * * * * * * * * * * * * * * * * * * * * * * * * * * * * //

dimensions      [0 3 -1 0 0 0 0];

internalField   nonuniform List<scalar> 
399
(
0
0
0
0
0
0
0
0
0
0
0
0
0
0
0
0
0
0
0
0
0
0
0
0
0
0
0
0
0
0
0
0
0
0
0
0
0
0
0
0
0
0
0
0
0
0
0
0
0
0
0
0
0
0
0
0
0
0
0
0
0
0
0
0
0
0
0
0
0
0
0
0
0
0
0
0
0
0
0
0
0
0
0
0
0
0
0
0
0
0
0
0
0
0
0
0
0
0
0
0
0
0
0
0
0
0
0
0
-5.42101086243e-20
-0.00210066752378
-0.00774223170524
-0.0145932591501
-0.0218454393019
-0.0292113552049
-0.0365819977773
-0.0439120137292
-0.0511789350314
-0.0583698969375
-0.0654765885445
-0.0724932891146
-0.0794159183302
-0.0862415169988
-0.0929679303395
-0.0995935811096
-0.106117311148
-0.112538278435
-0.118855894789
-0.125069783441
-0.131179740794
-0.137185697537
-0.143087683974
-0.148885807131
-0.154580241387
-0.160171226201
-0.165659061825
-0.171044098571
-0.1763267226
-0.181507345027
-0.186586398626
-0.191564340467
-0.196441654664
-0.201218850413
-0.205896455305
-0.210475008081
-0.214955055204
-0.219337152134
-0.223621866412
-0.227809778835
-0.23190148134
-0.235897573311
-0.239798659049
-0.243605347656
-0.247318254303
-0.250938000897
-0.254465215136
-0.257900528662
-0.261244575788
-0.264497993666
-0.267661423397
-0.270735510827
-0.27372090617
-0.276618262659
-0.279428235217
-0.282151480045
-0.284788655164
-0.287340421184
-0.28980744151
-0.292190381778
-0.294489909079
-0.296706691697
-0.298841399613
-0.300894705267
-0.302867283776
-0.304759812202
-0.306572968256
-0.308307429347
-0.309963872702
-0.31154297651
-0.313045421268
-0.31447189036
-0.315823069439
-0.317099645037
-0.318302303384
-0.319431730191
-0.320488611514
-0.321473635016
-0.322387490773
-0.323230871088
-0.324004469484
-0.324708979584
-0.325345094553
-0.325913507417
-0.326414911966
-0.326850003673
-0.32721948014
-0.327524040948
-0.327764387148
-0.327941220785
-0.328055244708
-0.328107162699
-0.328097679745
-0.328027502283
-0.32789733834
-0.327707897623
-0.327459891641
-0.327154033903
-0.326791040185
-0.3263716288
-0.325896520868
-0.325366440638
-0.324782115885
-0.324144278407
-0.323453664488
-0.322711015248
-0.321917076788
-0.321072600235
-0.320178341879
-0.319235063629
-0.318243533894
-0.317204528805
-0.316118833544
-0.314987243509
-0.313810565196
-0.312589616888
-0.311325229474
-0.310018247758
-0.308669532579
-0.307279963809
-0.305850444158
-0.304381903562
-0.302875303998
-0.301331644683
-0.299751967773
-0.298137364778
-0.296488983909
-0.294808038498
-0.293095816493
-0.291353690934
-0.289583131202
-0.287785714802
-0.28596313945
-0.284117235294
-0.282249977432
-0.280363499585
-0.278460111586
-0.27654232721
-0.274612917249
-0.272675020051
-0.270732376607
-0.268789820991
-0.26685426419
-0.264936606827
-0.263055202052
-0.261241292597
-0.259548841511
-0.258067602706
-0.256904239584
-0.256264403288
-0.256244632023
-0.256291733973
-0.256536226318
-0.257084236015
-0.257902650075
-0.258892126603
-0.259911722145
-0.260799264328
-0.261347522248
-0.26153315596
-0.26153315596
-0.261493977238
-0.261365204114
-0.26116059936
-0.260901881146
-0.260613892071
-0.260324788331
-0.260061061581
-0.259851620067
-0.25975784033
-0.259710493695
-0.259706969259
-0.259716733935
-0.259759083097
-0.259831806829
-0.25992944986
-0.260044998233
-0.260168813105
-0.260290970911
-0.260403414272
-0.260499431788
-0.260569674789
-0.26062074853
-0.260653117625
-0.260656301461
-0.260652353181
-0.260623888522
-0.260564638429
-0.260493821072
-0.260461591731
-0.260353909055
-0.259734352303
-0.256470802292
-0.234288246355
-0.106823569351
-0.0021547841682
0
0
0
0
0
0
0
0
0
0
0
0
0
0
0
0
0
0
0
0
0
0
0
0
0
0
0
0
0
0
0
0
0
0
0
0
0
0
0
0
0
0
0
0
0
0
0
0
0
0
0
0
0
0
0
0
0
0
0
0
0
0
0
0
0
0
0
0
0
0
0
0
0
0
0
0
0
0
0
0
0
0
0
0
0
0
0
0
0
0
0
0
0
0
0
)
;

boundaryField
{
    inflow
    {
        type            calculated;
        value           uniform 0;
    }
    outflow
    {
        type            calculated;
        value           uniform 0;
    }
    sides
    {
        type            empty;
    }
    topAndBottom
    {
        type            empty;
    }
}


// ************************************************************************* //
