/*--------------------------------*- C++ -*----------------------------------*\
  =========                 |
  \\      /  F ield         | OpenFOAM: The Open Source CFD Toolbox
   \\    /   O peration     | Website:  https://openfoam.org
    \\  /    A nd           | Version:  13
     \\/     M anipulation  |
\*---------------------------------------------------------------------------*/
FoamFile
{
    format      ascii;
    class       volScalarField;
    location    "1";
    object      Q1;
}
// * * * * * * * * * * * * * * * * * * * * * * * * * * * * * * * * * * * * * //

dimensions      [];

internalField   nonuniform List<scalar> 
400
(
0.5
0.5
0.5
0.5
0.5
0.5
0.5
0.5
0.5
0.5
0.5
0.5
0.5
0.5
0.5
0.5
0.5
0.5
0.5
0.5
0.5
0.5
0.5
0.5
0.5
0.5
0.5
0.5
0.5
0.5
0.5
0.5
0.5
0.5
0.5
0.5
0.5
0.5
0.5
0.5
0.5
0.5
0.5
0.5
0.5
0.5
0.5
0.5
0.5
0.5
0.5
0.5
0.5
0.5
0.5
0.5
0.5
0.5
0.5
0.5
0.5
0.5
0.5
0.5
0.5
0.5
0.5
0.5
0.5
0.5
0.5
0.5
0.5
0.5
0.5
0.5
0.5
0.5
0.5
0.5
0.5
0.5
0.5
0.5
0.5
0.5
0.5
0.5
0.5
0.5
0.5
0.5
0.5
0.5
0.5
0.5
0.5
0.5
0.5
0.5
0.5
0.5
0.5
0.5
0.5
0.5
0.5
0.5
0.5
0.499736609005
0.497839131163
0.494939628292
0.491673492286
0.488264366769
0.484794083753
0.481294884092
0.477781105031
0.474260499836
0.470737791603
0.467216216791
0.463698110525
0.460185229789
0.456678937459
0.45318031018
0.449690208665
0.446209327068
0.4427382334
0.439277401827
0.435827235504
0.4323880801
0.42896023121
0.425543940397
0.422139422929
0.418746866723
0.415366439695
0.411998293398
0.408642563378
0.405299368801
0.401968813769
0.39865099075
0.395345984448
0.392053874056
0.388774733199
0.385508628689
0.382255619942
0.379015759989
0.375789097511
0.372575678529
0.369375546848
0.366188743509
0.363015306197
0.359855269375
0.35670866506
0.353575523599
0.350455873907
0.347349743201
0.344257156703
0.341178137751
0.338112708333
0.335060889662
0.332022702398
0.328998166439
0.325987300564
0.322990122274
0.32000664799
0.317036893434
0.314080873897
0.311138604236
0.30821009869
0.305295370788
0.302394433503
0.299507299571
0.296633981729
0.293774492639
0.290928844545
0.288097048922
0.285279116402
0.282475057102
0.279684881128
0.276908598945
0.27414622137
0.271397759215
0.268663222862
0.265942622085
0.263235966235
0.260543264676
0.257864527169
0.255199763985
0.2525489857
0.249912202845
0.24728942567
0.244680664166
0.242085928335
0.239505228553
0.236938575826
0.234385981872
0.231847459036
0.229323020176
0.226812678611
0.224316448186
0.221834343402
0.219366379577
0.216912572977
0.214472940932
0.212047501957
0.209636275895
0.207239284085
0.204856549542
0.202488097134
0.200133953769
0.197794148602
0.195468713264
0.193157682099
0.190861092369
0.188578984393
0.186311401652
0.184058390881
0.181820002258
0.179596289722
0.177387311446
0.175193130406
0.173013814995
0.170849439625
0.168700085356
0.166565840646
0.164446802349
0.162343077104
0.160254783185
0.158182052807
0.156125034871
0.154083898047
0.152058834173
0.150050061945
0.148057830904
0.146082425749
0.144124170973
0.142183435772
0.140260639164
0.138356255204
0.136470818139
0.134604927381
0.132759252178
0.130934536017
0.129131601162
0.127351354659
0.125594799094
0.123863055775
0.122157417198
0.120479464241
0.118831318775
0.117216167313
0.115639292117
0.114109973455
0.112644855277
0.111273418216
0.110044628075
0.109036189108
0.108373366435
0.108139825299
0.108152181763
0.108255148887
0.108567669505
0.109096617645
0.10979280466
0.110565630328
0.111298917348
0.111860594478
0.112141883545
0.112173958236
0.112156949598
0.112087249118
0.111954218887
0.111771780735
0.111557887951
0.111333379707
0.111119601121
0.11093583074
0.110820783864
0.110766994797
0.110759290185
0.110765146871
0.110788728565
0.110835367231
0.110902322431
0.110984895031
0.11107639483
0.11116919741
0.111256270598
0.11133206284
0.111393649357
0.111430769138
0.111454126779
0.111458950807
0.111455608227
0.11144092993
0.111407741409
0.111358934538
0.111310458368
0.111267907805
0.111122756361
0.110484806325
0.1063690169
0.0818528097659
0.0258820182847
0.0101487314898
0.01
0.01
0.01
0.01
0.01
0.01
0.01
0.01
0.01
0.01
0.01
0.01
0.01
0.01
0.01
0.01
0.01
0.01
0.01
0.01
0.01
0.01
0.01
0.01
0.01
0.01
0.01
0.01
0.01
0.01
0.01
0.01
0.01
0.01
0.01
0.01
0.01
0.01
0.01
0.01
0.01
0.01
0.01
0.01
0.01
0.01
0.01
0.01
0.01
0.01
0.01
0.01
0.01
0.01
0.01
0.01
0.01
0.01
0.01
0.01
0.01
0.01
0.01
0.01
0.01
0.01
0.01
0.01
0.01
0.01
0.01
0.01
0.01
0.01
0.01
0.01
0.01
0.01
0.01
0.01
0.01
0.01
0.01
0.01
0.01
0.01
0.01
0.01
0.01
0.01
0.01
0.01
0.01
0.01
0.01
)
;

boundaryField
{
    inflow
    {
        type            zeroGradient;
    }
    outflow
    {
        type            zeroGradient;
    }
    sides
    {
        type            empty;
    }
    topAndBottom
    {
        type            empty;
    }
}


// ************************************************************************* //
