/*--------------------------------*- C++ -*----------------------------------*\
  =========                 |
  \\      /  F ield         | OpenFOAM: The Open Source CFD Toolbox
   \\    /   O peration     | Website:  https://openfoam.org
    \\  /    A nd           | Version:  13
     \\/     M anipulation  |
\*---------------------------------------------------------------------------*/
FoamFile
{
    format      ascii;
    class       volScalarField;
    location    "1";
    object      Q2;
}
// * * * * * * * * * * * * * * * * * * * * * * * * * * * * * * * * * * * * * //

dimensions      [];

internalField   nonuniform List<scalar> 
400
(
0
0
0
0
0
0
0
0
0
0
0
0
0
0
0
0
0
0
0
0
0
0
0
0
0
0
0
0
0
0
0
0
0
0
0
0
0
0
0
0
0
0
0
0
0
0
0
0
0
0
0
0
0
0
0
0
0
0
0
0
0
0
0
0
0
0
0
0
0
0
0
0
0
0
0
0
0
0
0
0
0
0
0
0
0
0
0
0
0
0
0
0
0
0
0
0
0
0
0
0
0
0
0
0
0
0
0
0
0
0.000582878249436
0.00476913810073
0.0111213292418
0.0182094184844
0.025531623646
0.0329047878631
0.040256985175
0.0475563583062
0.0547857747253
0.0619349050484
0.0689968097632
0.0759666256447
0.0828408536546
0.0896169488975
0.0962930532933
0.102867802444
0.109340197876
0.115709526267
0.121975307566
0.128137254061
0.134195230874
0.140149218766
0.145999285888
0.15174557267
0.157388286599
0.162927698681
0.168364135152
0.173697964431
0.178929584658
0.184059417217
0.189087906995
0.194015525146
0.19884276904
0.203570157406
0.2081982232
0.212727508563
0.217158564207
0.221491951802
0.225728245932
0.229868033275
0.233911909493
0.237860476217
0.241714339978
0.24547411295
0.249140413864
0.25271386769
0.256195104108
0.259584755976
0.262883458919
0.266091852081
0.269210579068
0.272240288055
0.275181630815
0.278035261364
0.280801835163
0.283482009287
0.286076443108
0.288585798737
0.291010740755
0.293351935503
0.295610050599
0.29778575514
0.299879720386
0.301892620226
0.30382513084
0.305677929613
0.307451694014
0.309147101247
0.310764828984
0.312305556638
0.313769966293
0.315158742578
0.316472571602
0.317712139663
0.318878132614
0.319971236281
0.32099213756
0.321941525432
0.322820091196
0.323628527807
0.324367528794
0.325037787465
0.325639996842
0.326174850322
0.326643042587
0.327045270248
0.327382231951
0.327654628023
0.327863159983
0.328008530242
0.328091442093
0.328112599917
0.328072709437
0.32797247789
0.327812614142
0.327593828787
0.327316834324
0.326982345387
0.326591079017
0.32614375492
0.325641095764
0.325083827546
0.324472680039
0.323808387284
0.323091687988
0.322323325757
0.321504049176
0.320634611899
0.319715772949
0.318748297408
0.317732957486
0.316670533798
0.315561816595
0.314407606765
0.313208716587
0.311965970476
0.310680206051
0.309352275875
0.307983050032
0.306573419543
0.305124300469
0.303636638494
0.30211141392
0.300549647102
0.298952404507
0.297320805603
0.295656030762
0.293959330227
0.292232034123
0.290475563319
0.288691440949
0.286881304318
0.285046916975
0.283190180855
0.281313148857
0.279418039264
0.277507255908
0.275583423424
0.273649458854
0.27170872539
0.269765361867
0.267824973451
0.265896010002
0.26399236348
0.262138071544
0.26037495328
0.258772596704
0.257441754763
0.256556443139
0.256245177349
0.256261971496
0.256399872167
0.256817481744
0.257521204353
0.258441108763
0.259453131817
0.260409944389
0.26112896166
0.261480801852
0.26153315596
0.261512132806
0.261425206299
0.261256292478
0.261023243205
0.260749043773
0.260460413578
0.260184497249
0.259941222277
0.25980906779
0.259728697689
0.259708196236
0.259712482654
0.259738744674
0.259797044055
0.259882975108
0.259990270148
0.260110145364
0.260232695754
0.260349272275
0.260452889619
0.260540785211
0.260589081608
0.260641767336
0.260655136338
0.260654059478
0.26063844491
0.26059267594
0.260522449148
0.260473610026
0.260452921151
0.260123285908
0.258227641918
0.244444832318
0.162896072812
0.024669353572
0.000131308526123
0
0
0
0
0
0
0
0
0
0
0
0
0
0
0
0
0
0
0
0
0
0
0
0
0
0
0
0
0
0
0
0
0
0
0
0
0
0
0
0
0
0
0
0
0
0
0
0
0
0
0
0
0
0
0
0
0
0
0
0
0
0
0
0
0
0
0
0
0
0
0
0
0
0
0
0
0
0
0
0
0
0
0
0
0
0
0
0
0
0
0
0
0
0
0
)
;

boundaryField
{
    inflow
    {
        type            zeroGradient;
    }
    outflow
    {
        type            zeroGradient;
    }
    sides
    {
        type            empty;
    }
    topAndBottom
    {
        type            empty;
    }
}


// ************************************************************************* //
