/*--------------------------------*- C++ -*----------------------------------*\
  =========                 |
  \\      /  F ield         | OpenFOAM: The Open Source CFD Toolbox
   \\    /   O peration     | Website:  https://openfoam.org
    \\  /    A nd           | Version:  13
     \\/     M anipulation  |
\*---------------------------------------------------------------------------*/
FoamFile
{
    format      ascii;
    class       surfaceScalarField;
    location    "1";
    object      Dp1;
}
// * * * * * * * * * * * * * * * * * * * * * * * * * * * * * * * * * * * * * //

dimensions      [0 3 -1 0 0 0 0];

internalField   nonuniform List<scalar> 
99
(
-1.25779061671e-08
-3.47401294269e-08
-9.31017632399e-08
-2.42015633492e-07
-6.10007317502e-07
-1.49029007055e-06
-3.5275992392e-06
-8.08684171762e-06
-1.79464383099e-05
-3.85367665523e-05
-8.00309806891e-05
-0.00016065955597
-0.000311597967697
-0.000583574075239
-0.00105485461018
-0.00183944870213
-0.0030933145144
-0.00501542858437
-0.0078403835119
-0.0118203611803
-0.017197113477
-0.0241683155426
-0.0328557603032
-0.0432835521505
-0.055371933698
-0.0689475924553
-0.083766485965
-0.0995424966396
-0.115975300392
-0.132772923512
-0.149667138937
-0.166421985256
-0.182836848788
-0.198745854944
-0.21401511267
-0.228538958771
-0.242235950744
-0.255045040612
-0.26692214336
-0.277837177023
-0.287771574197
-0.296716226247
-0.304669806205
-0.311637414093
-0.317629492697
-0.32266096899
-0.326750584352
-0.329920384569
-0.332195347734
-0.333603134626
-0.334173951818
-0.333940522744
-0.332938166122
-0.331204984317
-0.328782165835
-0.325714405069
-0.322050436623
-0.317843667366
-0.313152860489
-0.308042771669
-0.302584540188
-0.29685546745
-0.290937518441
-0.284913356064
-0.278857757848
-0.272820455335
-0.266792618648
-0.260640492233
-0.254008634793
-0.246095574032
-0.235333222569
-0.219001225772
-0.193148228259
-0.153893057109
-0.10162933054
-0.047288596699
-0.0111738061957
-0.000851419191583
-2.51729918137e-05
-6.25439150277e-07
-1.54765106256e-08
-3.82969452234e-10
-9.47772288286e-12
-2.34560855904e-13
-5.80506463348e-15
-1.43400348345e-16
-3.69827236478e-18
-4.02158272242e-20
0
0
0
0
0
0
0
0
0
0
0
)
;

boundaryField
{
    inflow
    {
        type            calculated;
        value           uniform 4.4200264473e-09;
    }
    outflow
    {
        type            calculated;
        value           uniform 0;
    }
    sides
    {
        type            empty;
    }
    topAndBottom
    {
        type            empty;
    }
}


// ************************************************************************* //
