/*--------------------------------*- C++ -*----------------------------------*\
  =========                 |
  \\      /  F ield         | OpenFOAM: The Open Source CFD Toolbox
   \\    /   O peration     | Website:  https://openfoam.org
    \\  /    A nd           | Version:  13
     \\/     M anipulation  |
\*---------------------------------------------------------------------------*/
FoamFile
{
    format      ascii;
    class       surfaceScalarField;
    location    "1";
    object      Dp2;
}
// * * * * * * * * * * * * * * * * * * * * * * * * * * * * * * * * * * * * * //

dimensions      [0 3 -1 0 0 0 0];

internalField   nonuniform List<scalar> 
99
(
-1.22624997214
-1.22624992306
-1.22624979381
-1.226249464
-1.226248649
-1.22624669942
-1.22624218736
-1.22623208997
-1.22621025405
-1.22616465377
-1.22607276235
-1.22589421916
-1.22556003083
-1.22495801574
-1.22391532918
-1.22218082126
-1.21941245836
-1.21517725607
-1.20897165057
-1.20026733071
-1.18858057392
-1.17355363772
-1.15502884869
-1.13309452497
-1.10808900122
-1.0805621635
-1.05120675015
-1.02077840318
-0.990022292274
-0.959617603418
-0.930143488057
-0.902064323046
-0.875729338401
-0.851381271766
-0.829169625155
-0.809165422614
-0.791375578959
-0.775755896761
-0.762222303459
-0.750660288811
-0.740932682698
-0.732885988852
-0.726355506815
-0.721169461415
-0.717152333403
-0.71412755617
-0.711919716439
-0.71035637361
-0.709269593704
-0.708497279616
-0.707884369133
-0.70728396543
-0.706558460708
-0.70558071112
-0.704235318522
-0.702420068634
-0.700047560554
-0.697047029074
-0.693366291016
-0.688973608059
-0.683858995466
-0.678034020312
-0.671528243731
-0.664378820528
-0.656606669309
-0.648166614567
-0.63884669068
-0.628066203344
-0.614548232767
-0.595670307168
-0.566516166779
-0.518961998483
-0.442406677648
-0.329916245603
-0.192680120813
-0.0716935709142
-0.0112863148749
-0.000847351129497
-0.000498438794619
-0.000490695922462
-0.000490504847403
-0.00049050011995
-0.000490500002969
-0.000490500000073
-0.000490500000002
-0.0004905
-0.0004905
-0.0004905
-0.0004905
-0.0004905
-0.0004905
-0.0004905
-0.0004905
-0.0004905
-0.0004905
-0.0004905
-0.0004905
-0.0004905
-0.0004905
)
;

boundaryField
{
    inflow
    {
        type            calculated;
        value           uniform 1.22624999021;
    }
    outflow
    {
        type            calculated;
        value           uniform -0.0004905;
    }
    sides
    {
        type            empty;
    }
    topAndBottom
    {
        type            empty;
    }
}


// ************************************************************************* //
