/*--------------------------------*- C++ -*----------------------------------*\
  =========                 |
  \\      /  F ield         | OpenFOAM: The Open Source CFD Toolbox
   \\    /   O peration     | Website:  https://openfoam.org
    \\  /    A nd           | Version:  13
     \\/     M anipulation  |
\*---------------------------------------------------------------------------*/
FoamFile
{
    format      ascii;
    class       volScalarField;
    location    "1";
    object      Q1;
}
// * * * * * * * * * * * * * * * * * * * * * * * * * * * * * * * * * * * * * //

dimensions      [];

internalField   nonuniform List<scalar> 
100
(
0.4999999975
0.499999992951
0.499999980708
0.49999994876
0.499999867984
0.499999670171
0.499999201204
0.499998125468
0.49999573932
0.49999062433
0.499980035341
0.499958880474
0.499918126185
0.499842480318
0.499707312009
0.499475000279
0.499091272743
0.498482536618
0.497555542765
0.496200699922
0.494299741117
0.491737230509
0.48841394997
0.484259181821
0.479238914739
0.473358166057
0.466657421697
0.459204801237
0.45108632195
0.442396460214
0.433230444606
0.423678840413
0.413824326851
0.403740223775
0.393490236617
0.383128948159
0.372702701685
0.362250636762
0.351805732923
0.34139578319
0.331044262482
0.320771081737
0.310593232663
0.30052533498
0.290580100565
0.280768729326
0.271101250763
0.261586824024
0.252234007888
0.243051010993
0.234045931508
0.225226994569
0.216602794843
0.208182550382
0.199976372264
0.191995551574
0.184252860504
0.176762856111
0.169542161698
0.162609678605
0.155986645656
0.149696407235
0.143763661419
0.138212813267
0.133064805447
0.128331323017
0.124004300858
0.120036809328
0.116309269574
0.112575545306
0.108349891921
0.102767738133
0.0944619795193
0.0817208332177
0.0634704596061
0.0414577482268
0.021998539488
0.0121129443113
0.0101259985162
0.0100035111017
0.0100000871034
0.0100000021554
0.0100000000533
0.0100000000013
0.01
0.01
0.01
0.01
0.01
0.01
0.01
0.01
0.01
0.01
0.01
0.01
0.01
0.01
0.01
0.01
)
;

boundaryField
{
    inflow
    {
        type            zeroGradient;
    }
    outflow
    {
        type            zeroGradient;
    }
    sides
    {
        type            empty;
    }
    topAndBottom
    {
        type            empty;
    }
}


// ************************************************************************* //
