/*--------------------------------*- C++ -*----------------------------------*\
  =========                 |
  \\      /  F ield         | OpenFOAM: The Open Source CFD Toolbox
   \\    /   O peration     | Website:  https://openfoam.org
    \\  /    A nd           | Version:  13
     \\/     M anipulation  |
\*---------------------------------------------------------------------------*/
FoamFile
{
    format      ascii;
    class       volScalarField;
    location    "1";
    object      Q2;
}
// * * * * * * * * * * * * * * * * * * * * * * * * * * * * * * * * * * * * * //

dimensions      [];

internalField   nonuniform List<scalar> 
100
(
5.53649192447e-09
1.56109682557e-08
4.27273442827e-08
1.13481705737e-07
2.92377925639e-07
7.30480083922e-07
1.76910865621e-06
4.15155387765e-06
9.43614451918e-06
2.07641177932e-05
4.4214427738e-05
9.10609970729e-05
0.000181299092442
0.00034875786361
0.000647867627299
0.00116160470957
0.00200926441077
0.00335166001791
0.00539052558296
0.00835895969549
0.0125012940612
0.0180438693369
0.0251619390808
0.033950541407
0.0444070066109
0.0564294605016
0.0698306894151
0.0843624393267
0.0997433885462
0.115684846699
0.131910589845
0.148169750756
0.164243457079
0.179946741594
0.195127361163
0.209662890946
0.223457073188
0.236436042646
0.248544778529
0.25974394916
0.27000720306
0.279318897659
0.287672226499
0.295067694514
0.301511890333
0.307016509149
0.311597586574
0.315274911377
0.318071592205
0.320013760046
0.321130394069
0.321453263528
0.321016982598
0.319859177868
0.318020769314
0.315546363673
0.312484752227
0.308889489686
0.304819501302
0.30033961218
0.295520800669
0.290439821276
0.285177577069
0.279815161325
0.274425655006
0.269058169435
0.263707404898
0.258255578781
0.252366619976
0.245311928607
0.235643893575
0.22080228992
0.196940938483
0.160000336179
0.10963509723
0.0553808980985
0.0161465452707
0.00172034449
4.81550122886e-05
1.10455784291e-06
2.72842327838e-08
6.75099423725e-10
1.67064861961e-11
4.13458401762e-13
1.02324428587e-14
2.53226202283e-16
6.21279398702e-18
1.54128933637e-19
0
0
0
0
0
0
0
0
0
0
0
0
)
;

boundaryField
{
    inflow
    {
        type            zeroGradient;
    }
    outflow
    {
        type            zeroGradient;
    }
    sides
    {
        type            empty;
    }
    topAndBottom
    {
        type            empty;
    }
}


// ************************************************************************* //
