/*--------------------------------*- C++ -*----------------------------------*\
  =========                 |
  \\      /  F ield         | OpenFOAM: The Open Source CFD Toolbox
   \\    /   O peration     | Website:  https://openfoam.org
    \\  /    A nd           | Version:  13
     \\/     M anipulation  |
\*---------------------------------------------------------------------------*/
FoamFile
{
    format      ascii;
    class       surfaceScalarField;
    location    "1";
    object      Dm2;
}
// * * * * * * * * * * * * * * * * * * * * * * * * * * * * * * * * * * * * * //

dimensions      [0 3 -1 0 0 0 0];

internalField   nonuniform List<scalar> 
399
(
1.22625
1.22625
1.22625
1.22625
1.22625
1.22625
1.22625
1.22625
1.22625
1.22625
1.22625
1.22625
1.22625
1.22625
1.22625
1.22625
1.22625
1.22625
1.22625
1.22625
1.22625
1.22625
1.22625
1.22625
1.22625
1.22625
1.22625
1.22625
1.22625
1.22625
1.22625
1.22625
1.22625
1.22625
1.22625
1.22625
1.22625
1.22625
1.22625
1.22625
1.22625
1.22625
1.22625
1.22625
1.22625
1.22625
1.22624999999
1.22624999999
1.22624999998
1.22624999996
1.22624999993
1.22624999987
1.22624999976
1.22624999955
1.22624999918
1.22624999851
1.22624999732
1.22624999522
1.22624999155
1.22624998519
1.22624997427
1.2262499557
1.22624992443
1.22624987228
1.22624978612
1.22624964515
1.22624941677
1.22624905037
1.22624846836
1.22624755303
1.22624612792
1.22624393153
1.22624058089
1.22623552189
1.22622796264
1.22621678546
1.22620043305
1.22617676383
1.22614287204
1.22609486917
1.22602762492
1.22593446906
1.22580685934
1.22563402599
1.22540260977
1.22509631724
1.22469562401
1.2241775626
1.22351563508
1.22267989104
1.22163720675
1.22035179137
1.21878593037
1.21690095616
1.21465841257
1.21202135679
1.20895572266
1.20543165616
1.2014247301
1.19691695201
1.19189749553
1.18636311039
1.18031819452
1.17377454058
1.16675079493
1.15927168525
1.15136708441
1.14307098085
1.13442042136
1.12545448315
1.11621331955
1.10673731014
1.09706633371
1.08723917081
1.07729303413
1.06726321832
1.05718285702
1.04708277216
1.03699140051
1.02693478252
1.01693659973
1.00701824876
0.997198941379
0.987495822151
0.977924096681
0.968497164921
0.959226755392
0.950123057178
0.94119484744
0.932449612963
0.923893664724
0.915532244995
0.907369626732
0.899409205313
0.891653582811
0.884104645116
0.876763632308
0.869631202701
0.86270749103
0.855992161212
0.849484454151
0.843183230998
0.837087012282
0.83119401329
0.825502176041
0.820009198188
0.814712559144
0.809609543697
0.804697263373
0.79997267575
0.795432601957
0.791073742502
0.78689269163
0.782885950329
0.779049938139
0.775381003871
0.771875435349
0.768529468264
0.765339294237
0.762301068166
0.759410914913
0.756664935421
0.754059212282
0.751589814848
0.749252803888
0.747044235862
0.744960166843
0.742996656106
0.741149769434
0.739415582149
0.737790181915
0.736269671307
0.734850170193
0.73352781793
0.732298775396
0.731159226873
0.730105381799
0.729133476389
0.728239775152
0.727420572303
0.726672193085
0.725990995008
0.725373369018
0.724815740591
0.724314570777
0.723866357187
0.723467634936
0.723114977541
0.722804997793
0.722534348595
0.722299723775
0.72209785889
0.721925532007
0.72177956448
0.721656821733
0.721554214031
0.721468697272
0.721397273788
0.721336993168
0.721284953104
0.72123830027
0.721194231245
0.721149993479
0.721102886306
0.721050262037
0.720989527103
0.7209181433
0.720833629106
0.720733561114
0.72061557558
0.720477370086
0.720316705366
0.720131407272
0.719919368932
0.719678553092
0.719406994678
0.719102803594
0.718764167784
0.718389356573
0.717976724335
0.71752471449
0.717031863884
0.716496807573
0.71591828405
0.715295140948
0.714626341251
0.713910970056
0.713148241923
0.712337508827
0.71147826877
0.710570175049
0.709613046215
0.708606876717
0.707551848228
0.70644834162
0.705296949538
0.704098489487
0.702854017321
0.701564840956
0.700232534105
0.698858949743
0.697446232948
0.695996832696
0.694513512076
0.692999356295
0.691457777785
0.689892517547
0.688307641876
0.686707533444
0.685096875756
0.683480629938
0.681864002896
0.68025240602
0.678651403812
0.677066652134
0.675503826202
0.673968538974
0.672466251198
0.671002175062
0.669581174092
0.668207662622
0.666885508677
0.665617944555
0.664407489454
0.663255888366
0.662164070909
0.661132132914
0.660159342445
0.659244170528
0.65838434542
0.657576927779
0.656818402851
0.656104784769
0.655431727469
0.654794636494
0.654188776066
0.653609366192
0.653051664783
0.652511029582
0.65198295996
0.65146310187
0.650947189787
0.650430923733
0.64990968462
0.649377956874
0.648828172505
0.648248397547
0.647617692009
0.646896792287
0.646009409621
0.644804794352
0.642983247841
0.639949678152
0.634532489608
0.624469661111
0.605562769827
0.570604180908
0.509032722799
0.410229302133
0.274827814265
0.131602699611
0.0336115347132
0.0028189177946
0.000539663616615
0.000491657668531
0.000490527860677
0.000490500670887
0.000490500016156
0.000490500000389
0.000490500000009
0.0004905
0.0004905
0.0004905
0.0004905
0.0004905
0.0004905
0.0004905
0.0004905
0.0004905
0.0004905
0.0004905
0.0004905
0.0004905
0.0004905
0.0004905
0.0004905
0.0004905
0.0004905
0.0004905
0.0004905
0.0004905
0.0004905
0.0004905
0.0004905
0.0004905
0.0004905
0.0004905
0.0004905
0.0004905
0.0004905
0.0004905
0.0004905
0.0004905
0.0004905
0.0004905
0.0004905
0.0004905
0.0004905
0.0004905
0.0004905
0.0004905
0.0004905
0.0004905
0.0004905
0.0004905
0.0004905
0.0004905
0.0004905
0.0004905
0.0004905
0.0004905
0.0004905
0.0004905
0.0004905
0.0004905
0.0004905
0.0004905
0.0004905
0.0004905
0.0004905
0.0004905
0.0004905
0.0004905
0.0004905
0.0004905
0.0004905
0.0004905
0.0004905
0.0004905
0.0004905
0.0004905
0.0004905
0.0004905
0.0004905
0.0004905
0.0004905
0.0004905
0.0004905
0.0004905
0.0004905
0.0004905
0.0004905
0.0004905
0.0004905
0.0004905
0.0004905
0.0004905
0.0004905
0.0004905
)
;

boundaryField
{
    inflow
    {
        type            calculated;
        value           uniform -1.22625;
    }
    outflow
    {
        type            calculated;
        value           uniform 0.0004905;
    }
    sides
    {
        type            empty;
    }
    topAndBottom
    {
        type            empty;
    }
}


// ************************************************************************* //
