/*--------------------------------*- C++ -*----------------------------------*\
  =========                 |
  \\      /  F ield         | OpenFOAM: The Open Source CFD Toolbox
   \\    /   O peration     | Website:  https://openfoam.org
    \\  /    A nd           | Version:  13
     \\/     M anipulation  |
\*---------------------------------------------------------------------------*/
FoamFile
{
    format      ascii;
    class       surfaceScalarField;
    location    "1";
    object      Dp1;
}
// * * * * * * * * * * * * * * * * * * * * * * * * * * * * * * * * * * * * * //

dimensions      [0 3 -1 0 0 0 0];

internalField   nonuniform List<scalar> 
399
(
0
0
0
0
0
0
0
0
0
0
0
0
0
0
0
0
0
0
0
0
0
0
0
0
0
0
0
0
0
0
0
0
-1.32575486939e-17
-1.06062683311e-16
-6.65323707238e-16
-1.1094911494e-15
-2.08281156121e-15
-4.08609877069e-15
-8.31504451483e-15
-1.70748522483e-14
-3.48011895804e-14
-7.12639731824e-14
-1.44865829109e-13
-2.91919683302e-13
-5.83080767465e-13
-1.15531506207e-12
-2.26944440259e-12
-4.42036654647e-12
-8.53660993792e-12
-1.63454738602e-11
-3.10283576095e-11
-5.83922061712e-11
-1.08935088915e-10
-2.01454674746e-10
-3.6928852476e-10
-6.70987596241e-10
-1.20838276684e-09
-2.15683488609e-09
-3.81533016854e-09
-6.68852624118e-09
-1.16196163514e-08
-2.00030318218e-08
-3.41210072367e-08
-5.76698483506e-08
-9.65729180682e-08
-1.6022112007e-07
-2.63341901784e-07
-4.28779032503e-07
-6.91572460683e-07
-1.1048651239e-06
-1.74833536011e-06
-2.74006103782e-06
-4.25296215745e-06
-6.53723377526e-06
-9.95045308206e-06
-1.49972940451e-05
-2.23809666422e-05
-3.3068555885e-05
-4.83722933438e-05
-7.00483631899e-05
-0.000100414033511
-0.00014248262792
-0.000200114055784
-0.000278176297391
-0.000382710468298
-0.000521089046037
-0.000702153836493
-0.000936317713612
-0.00123561260696
-0.00161366619306
-0.00208559176201
-0.00266778009093
-0.00337758886239
-0.00423293381729
-0.00525179559502
-0.00645166588479
-0.00784896469245
-0.00945846586781
-0.0112927695263
-0.0133618571961
-0.01567275869
-0.0182293497685
-0.0210322880563
-0.024079083004
-0.0273642854697
-0.0308797748325
-0.0346151170475
-0.0385579657289
-0.0426944798018
-0.0470097347682
-0.0514881093773
-0.0561136346843
-0.0608702975037
-0.0657422946652
-0.0707142380303
-0.0757713128467
-0.0808993937597
-0.0860851237752
-0.0913159618481
-0.0965802047025
-0.10186698812
-0.107166272397
-0.112468816039
-0.117766141115
-0.123050493091
-0.128314797388
-0.133552614426
-0.138758094487
-0.143925933404
-0.14905132976
-0.154129944098
-0.159157860433
-0.164131550231
-0.169047838924
-0.173903874952
-0.178697101249
-0.183425229098
-0.188086214206
-0.192678234874
-0.197199672105
-0.201649091519
-0.206025226915
-0.210326965349
-0.214553333596
-0.218703485879
-0.222776692732
-0.22677233091
-0.23068987424
-0.234528885325
-0.238289008011
-0.241969960567
-0.24557152948
-0.249093563823
-0.252535970147
-0.255898707823
-0.259181784812
-0.262385253818
-0.265509208778
-0.268553781665
-0.271519139573
-0.27440548206
-0.277213038718
-0.279942066953
-0.28259284996
-0.285165694869
-0.287660931044
-0.290078908536
-0.292419996657
-0.294684582681
-0.296873070648
-0.298985880273
-0.301023445946
-0.302986215812
-0.304874650938
-0.306689224539
-0.30843042128
-0.310098736637
-0.31169467631
-0.313218755695
-0.314671499402
-0.316053440821
-0.317365121727
-0.318607091937
-0.319779908989
-0.320884137879
-0.321920350813
-0.32288912701
-0.323791052528
-0.32462672013
-0.325396729173
-0.32610168554
-0.326742201595
-0.327318896171
-0.327832394599
-0.328283328754
-0.32867233715
-0.329000065058
-0.329267164669
-0.32947429529
-0.329622123577
-0.329711323815
-0.329742578238
-0.3297165774
-0.329634020588
-0.329495616298
-0.329302082762
-0.329054148537
-0.328752553165
-0.328398047899
-0.327991396509
-0.327533376176
-0.327024778466
-0.326466410417
-0.32585909572
-0.325203676024
-0.32450101236
-0.32375198671
-0.322957503709
-0.322118492522
-0.321235908878
-0.320310737298
-0.319343993512
-0.318336727101
-0.31729002435
-0.316205011353
-0.315082857363
-0.313924778418
-0.312732041239
-0.311505967412
-0.310247937872
-0.308959397671
-0.307641861045
-0.306296916755
-0.304926233681
-0.303531566651
-0.302114762431
-0.300677765841
-0.299222625881
-0.297751501769
-0.296266668752
-0.294770523494
-0.293265588839
-0.291754517684
-0.290240095649
-0.288725242191
-0.287213009751
-0.285706580482
-0.28420926006
-0.282724468046
-0.281255724277
-0.279806630736
-0.278380848447
-0.27698206898
-0.275613980323
-0.274280227042
-0.272984364926
-0.271729810599
-0.270519786948
-0.269357265626
-0.268244908251
-0.267185008361
-0.26617943646
-0.265229590741
-0.264336356125
-0.263500074165
-0.262720526038
-0.26199693032
-0.261327956548
-0.260711754707
-0.260145999843
-0.259627950097
-0.259154515598
-0.25872233503
-0.258327856222
-0.257967416982
-0.257637322505
-0.257333915971
-0.257053639367
-0.256793082021
-0.256549016796
-0.256318417041
-0.256098446294
-0.255886427029
-0.255679752949
-0.255475709522
-0.25527111826
-0.255061632569
-0.254840336364
-0.254594942288
-0.25430217914
-0.25391655904
-0.253347994116
-0.252417623838
-0.250772331018
-0.247725707183
-0.241985421194
-0.231264800108
-0.211975813462
-0.179738729653
-0.132185749022
-0.0749534974216
-0.0259695746227
-0.00355682821926
-0.000148932543327
-3.69284371786e-06
-8.8950414717e-08
-2.14197686144e-09
-5.15811709541e-11
-1.24222760058e-12
-2.99200454174e-14
-7.20559872984e-16
-1.7264419502e-17
-1.87730363551e-19
0
0
0
0
0
0
0
0
0
0
0
0
0
0
0
0
0
0
0
0
0
0
0
0
0
0
0
0
0
0
0
0
0
0
0
0
0
0
0
0
0
0
0
0
0
0
0
0
0
0
0
0
0
0
0
0
0
0
0
0
0
0
0
0
0
0
0
0
0
0
0
0
0
0
0
0
0
0
0
0
0
0
0
0
0
0
)
;

boundaryField
{
    inflow
    {
        type            calculated;
        value           uniform 0;
    }
    outflow
    {
        type            calculated;
        value           uniform 0;
    }
    sides
    {
        type            empty;
    }
    topAndBottom
    {
        type            empty;
    }
}


// ************************************************************************* //
