/*--------------------------------*- C++ -*----------------------------------*\
  =========                 |
  \\      /  F ield         | OpenFOAM: The Open Source CFD Toolbox
   \\    /   O peration     | Website:  https://openfoam.org
    \\  /    A nd           | Version:  13
     \\/     M anipulation  |
\*---------------------------------------------------------------------------*/
FoamFile
{
    format      ascii;
    class       volScalarField;
    location    "1";
    object      Q1;
}
// * * * * * * * * * * * * * * * * * * * * * * * * * * * * * * * * * * * * * //

dimensions      [];

internalField   nonuniform List<scalar> 
400
(
0.5
0.5
0.5
0.5
0.5
0.5
0.5
0.5
0.5
0.5
0.5
0.5
0.5
0.5
0.5
0.5
0.5
0.5
0.5
0.5
0.5
0.5
0.5
0.5
0.5
0.5
0.5
0.5
0.5
0.5
0.5
0.5
0.5
0.5
0.5
0.5
0.5
0.5
0.5
0.5
0.5
0.5
0.5
0.5
0.5
0.5
0.499999999999
0.499999999999
0.499999999998
0.499999999996
0.499999999992
0.499999999984
0.499999999971
0.499999999945
0.499999999899
0.499999999815
0.499999999665
0.499999999398
0.499999998927
0.499999998106
0.499999996686
0.499999994253
0.499999990125
0.499999983188
0.499999971638
0.499999952595
0.4999999215
0.499999871217
0.499999790706
0.499999663063
0.499999462708
0.499999151373
0.499998672468
0.4999979433
0.499996844488
0.499995205791
0.499992787474
0.499989256249
0.499984154811
0.499976864073
0.499966557427
0.499952146718
0.499932220256
0.499904973973
0.499868137933
0.499818901595
0.499753842607
0.499668865136
0.499559154834
0.499419158039
0.499242592717
0.499022497533
0.498751323441
0.498421069078
0.498023457539
0.497550147915
0.496992971061
0.496344175869
0.4955966704
0.494744242025
0.493781742212
0.492705224712
0.49151203008
0.490200814252
0.488771523462
0.487225321749
0.485564480098
0.483792237831
0.481912647204
0.479930411446
0.477850725023
0.475679123068
0.473421344886
0.471083214548
0.468670539965
0.466189030463
0.463644231958
0.461041478147
0.458385855794
0.455682182034
0.452934991627
0.450148532246
0.447326766048
0.444473376017
0.44159177579
0.43868512191
0.435756327632
0.432808077624
0.429842843008
0.426862896369
0.423870326422
0.42086705215
0.417854836246
0.414835297812
0.411809924235
0.40878008224
0.405747028137
0.40271191726
0.399675812657
0.396639693054
0.393604460145
0.390570945254
0.387539915411
0.384512078895
0.381488090281
0.37846855503
0.37545403368
0.372445045645
0.369442072684
0.366445562049
0.363455929361
0.360473561222
0.357498817595
0.354532033982
0.3515735234
0.348623578192
0.345682471679
0.342750459672
0.339827781851
0.336914663036
0.334011314343
0.331117934253
0.328234709587
0.325361816413
0.322499420866
0.319647679922
0.316806742099
0.313976748108
0.311157831466
0.30835011905
0.305553731624
0.302768784322
0.299995387103
0.297233645178
0.294483659407
0.291745526672
0.289019340234
0.286305190066
0.28360316317
0.280913343882
0.278235814161
0.275570653865
0.272917941023
0.270277752093
0.267650162217
0.265035245468
0.262433075095
0.259843723764
0.257267263799
0.254703767423
0.252153306997
0.249615955267
0.247091785613
0.244580872296
0.242083290729
0.239599117736
0.237128431836
0.234671313528
0.232227845598
0.229798113433
0.227382205355
0.224980212974
0.22259223156
0.220218360437
0.217858703406
0.21551336919
0.213182471916
0.210866131624
0.208564474816
0.206277635046
0.204005753547
0.201748979913
0.19950747283
0.197281400854
0.195070943263
0.192876290965
0.190697647474
0.18853522997
0.186389270427
0.18426001684
0.182147734533
0.180052707567
0.177975240253
0.175915658768
0.173874312883
0.171851577808
0.169847856152
0.167863580001
0.165899213114
0.163955253232
0.162032234491
0.160130729929
0.158251354073
0.156394765581
0.154561669898
0.152752821908
0.150969028508
0.149211151055
0.147480107595
0.145776874789
0.144102489412
0.142458049288
0.14084471351
0.139263701749
0.137716292457
0.136203819728
0.134727668563
0.133289268294
0.131890083876
0.130531604803
0.1292153314
0.127942758294
0.126715354936
0.125534543136
0.1244016717
0.123317988416
0.122284609814
0.121302489352
0.120372384866
0.119494826391
0.1186700856
0.117898148313
0.117178691574
0.116511066811
0.115894290449
0.11532704313
0.114807678315
0.114334240598
0.113904493498
0.113515955957
0.11316594621
0.112851631218
0.112570079509
0.11231831507
0.112093369919
0.11189233312
0.111712394306
0.111550880163
0.111405282709
0.111273278571
0.111152741059
0.111041735756
0.110938509278
0.110841460156
0.110749081691
0.110659855758
0.110572051956
0.110483338869
0.110390018532
0.110285503896
0.110157278803
0.109980833295
0.109707636155
0.109241601794
0.108394298723
0.106804364347
0.10380891908
0.0982914331263
0.0886610360788
0.0733830257231
0.0526369495109
0.0307215738094
0.0155681989496
0.0105656496908
0.010020347286
0.0100004991158
0.0100000120217
0.0100000002895
0.010000000007
0.0100000000002
0.01
0.01
0.01
0.01
0.01
0.01
0.01
0.01
0.01
0.01
0.01
0.01
0.01
0.01
0.01
0.01
0.01
0.01
0.01
0.01
0.01
0.01
0.01
0.01
0.01
0.01
0.01
0.01
0.01
0.01
0.01
0.01
0.01
0.01
0.01
0.01
0.01
0.01
0.01
0.01
0.01
0.01
0.01
0.01
0.01
0.01
0.01
0.01
0.01
0.01
0.01
0.01
0.01
0.01
0.01
0.01
0.01
0.01
0.01
0.01
0.01
0.01
0.01
0.01
0.01
0.01
0.01
0.01
0.01
0.01
0.01
0.01
0.01
0.01
0.01
0.01
0.01
0.01
0.01
0.01
0.01
0.01
0.01
0.01
0.01
0.01
0.01
0.01
0.01
0.01
)
;

boundaryField
{
    inflow
    {
        type            zeroGradient;
    }
    outflow
    {
        type            zeroGradient;
    }
    sides
    {
        type            empty;
    }
    topAndBottom
    {
        type            empty;
    }
}


// ************************************************************************* //
