/*--------------------------------*- C++ -*----------------------------------*\
  =========                 |
  \\      /  F ield         | OpenFOAM: The Open Source CFD Toolbox
   \\    /   O peration     | Website:  https://openfoam.org
    \\  /    A nd           | Version:  13
     \\/     M anipulation  |
\*---------------------------------------------------------------------------*/
FoamFile
{
    format      ascii;
    class       volScalarField;
    location    "1";
    object      Q2;
}
// * * * * * * * * * * * * * * * * * * * * * * * * * * * * * * * * * * * * * //

dimensions      [];

internalField   nonuniform List<scalar> 
400
(
0
0
0
0
0
0
0
0
0
0
0
0
0
0
0
0
0
0
0
0
0
0
0
0
0
0
0
0
0
0
0
0
0
3.97723409038e-17
2.38639243297e-16
6.23128605505e-16
1.20651758871e-15
2.37328804822e-15
4.65378900923e-15
9.4932043289e-15
1.93311138244e-14
3.96433804794e-14
8.10237175134e-14
1.64341393571e-13
3.30393675949e-13
6.58799684773e-13
1.30263265342e-12
2.55389250964e-12
4.96460005938e-12
9.56917691984e-12
1.82869768817e-11
3.46466691412e-11
6.50756083203e-11
1.21169061111e-10
2.2364748371e-10
4.09182427461e-10
7.4204769079e-10
1.33379730871e-09
2.3761390083e-09
4.19525508332e-09
7.34056800641e-09
1.27281617008e-08
2.18698623229e-08
3.72348879785e-08
6.28140293357e-08
1.04989163989e-07
1.73856847552e-07
2.85217747226e-07
4.63528322671e-07
7.46222246545e-07
1.18995113688e-06
1.87947065885e-06
2.94010987204e-06
4.55500550566e-06
6.98854872997e-06
1.06177607593e-05
1.59735540285e-05
2.37940018944e-05
3.50917700255e-05
5.12376796725e-05
7.40618881632e-05
0.000105973293434
0.000150096416247
0.000210423135906
0.000291974258915
0.000400963075315
0.000544950004337
0.000732974474395
0.000975647769006
0.00128518923517
0.00167538855073
0.00216147915751
0.00275991275618
0.00348803186482
0.00436364638363
0.00540452996733
0.00662786151691
0.00804964484038
0.00968414417916
0.0115433739324
0.0136366772302
0.0159704204228
0.0185478201347
0.0213689077801
0.0244306249814
0.0277270336199
0.0312496172852
0.0349876471345
0.0389285845394
0.0430584948823
0.0473624507088
0.0518249073191
0.0564300390539
0.0611620293895
0.0660053121488
0.07094476443
0.0759658542488
0.081054747421
0.0861983790353
0.0913844951268
0.0966016700178
0.101839304388
0.107087608574
0.112337574977
0.117580942825
0.122810157943
0.128018329641
0.133199186375
0.138347031418
0.143456699467
0.148523514833
0.153543251655
0.158512096405
0.163426612834
0.1682837094
0.173080609173
0.177814822125
0.18248411972
0.187086511669
0.191620224717
0.196083683318
0.200475492048
0.204794419634
0.20903938444
0.213209441306
0.217303769602
0.221321662397
0.225262516632
0.229125824218
0.232911163943
0.236618194147
0.240246646061
0.243796317763
0.247267068687
0.250658814631
0.25397152322
0.257205209772
0.26035993354
0.263435794286
0.266432929156
0.269351509835
0.272191739943
0.274953852665
0.277638108581
0.280244793682
0.282774217561
0.285226711747
0.287602628197
0.289902337895
0.292126229591
0.294274708625
0.296348195869
0.298347126746
0.300271950335
0.302123128561
0.30390113544
0.305606456404
0.307239587676
0.308801035711
0.31029131668
0.311710956009
0.313060487964
0.314340455278
0.315551408822
0.316693907309
0.317768517047
0.318775811716
0.319716372193
0.320590786397
0.321399649182
0.322143562255
0.322823134128
0.32343898011
0.32399172232
0.324481989748
0.324910418345
0.325277651144
0.325584338432
0.325831137946
0.326018715121
0.326147743374
0.326218904442
0.326232888758
0.326190395888
0.326092135018
0.3259388255
0.325731197468
0.325469992516
0.325155964448
0.324789880118
0.324372520349
0.323904680944
0.323387173803
0.322820828146
0.322206491857
0.321545032954
0.320837341198
0.320084329851
0.319286937596
0.318446130629
0.317562904939
0.316638288787
0.315673345393
0.314669175858
0.313626922316
0.312547771344
0.31143295763
0.310283767917
0.309101545221
0.30788769333
0.306643681588
0.305371049939
0.304071414232
0.302746471746
0.301398006904
0.30002789711
0.298638118641
0.297230752498
0.295807990074
0.294372138507
0.292925625503
0.291471003412
0.29001095227
0.2885482815
0.287085929883
0.285626963399
0.284174570476
0.282732054146
0.281302820609
0.279890363685
0.278498244674
0.277130067205
0.275789446754
0.274479974684
0.273205176862
0.271968467171
0.270773096575
0.269622098735
0.268518233592
0.267463930668
0.26646123424
0.265511752761
0.264616615065
0.263776435886
0.262991293012
0.262260717983
0.261583701664
0.260958715231
0.260383746284
0.259856348831
0.259373705099
0.258932696344
0.258529979341
0.258162064942
0.257825395103
0.257516414979
0.25723163715
0.256967695508
0.256721386716
0.256489697571
0.256269821174
0.256059141596
0.255855199249
0.255655609587
0.25545789805
0.255259176996
0.255055509826
0.25484064851
0.254603511588
0.254323132002
0.253958539396
0.2534285701
0.252571909659
0.251069333733
0.248297441654
0.243072306542
0.233266332341
0.215451407258
0.185239033907
0.139804999293
0.0836463223318
0.0330913523222
0.00615681773403
0.000312507109308
6.58861294651e-06
1.56418705233e-07
3.7653591766e-09
9.06721261577e-11
2.18357907514e-12
5.25901143483e-14
1.26677159763e-15
3.04637779164e-17
6.79704108572e-19
6.47326343552e-21
0
0
0
0
0
0
0
0
0
0
0
0
0
0
0
0
0
0
0
0
0
0
0
0
0
0
0
0
0
0
0
0
0
0
0
0
0
0
0
0
0
0
0
0
0
0
0
0
0
0
0
0
0
0
0
0
0
0
0
0
0
0
0
0
0
0
0
0
0
0
0
0
0
0
0
0
0
0
0
0
0
0
0
0
0
0
)
;

boundaryField
{
    inflow
    {
        type            zeroGradient;
    }
    outflow
    {
        type            zeroGradient;
    }
    sides
    {
        type            empty;
    }
    topAndBottom
    {
        type            empty;
    }
}


// ************************************************************************* //
